----- GAMESS execution script 'rungms' -----
This job is running on host chemcompute-node-0.novalocal
under operating system Linux at Fri Nov 12 20:45:11 UTC 2021
SLURM has assigned the following compute nodes to this run:
chemcompute-node-0
Available scratch disk space (Kbyte units) at beginning of the job is
Filesystem     1K-blocks     Used Available Use% Mounted on
/dev/sda1       62903276 16846456  46056820  27% /
GAMESS temporary binary files will be written to /scratch/305538
GAMESS supplementary output files will be written to /data/slurm/341398
Copying input file 341398.inp to your run's scratch directory...
The generated host list is
chemcompute-node-0.novalocal

 Distributed Data Interface kickoff program.
 Initiating 1 compute processes on 1 nodes to run the following command:
 /data/gamess-2019R1-ddi/gamess.00.x 341398 

          ******************************************************
          *         GAMESS VERSION = 30 JUN 2019 (R1)          *
          *             FROM IOWA STATE UNIVERSITY             *
          * M.W.SCHMIDT, K.K.BALDRIDGE, J.A.BOATZ, S.T.ELBERT, *
          *   M.S.GORDON, J.H.JENSEN, S.KOSEKI, N.MATSUNAGA,   *
          *          K.A.NGUYEN, S.J.SU, T.L.WINDUS,           *
          *       TOGETHER WITH M.DUPUIS, J.A.MONTGOMERY       *
          *         J.COMPUT.CHEM.  14, 1347-1363(1993)        *
          **************** 64 BIT LINUX VERSION ****************

  SINCE 1993, STUDENTS AND POSTDOCS WORKING AT IOWA STATE UNIVERSITY
  AND ALSO IN THEIR VARIOUS JOBS AFTER LEAVING ISU HAVE MADE IMPORTANT
  CONTRIBUTIONS TO THE CODE:
     IVANA ADAMOVIC, CHRISTINE AIKENS, YURI ALEXEEV, POOJA ARORA,
     ANDREY ASADCHEV, ROB BELL, PRADIPTA BANDYOPADHYAY, JONATHAN BENTZ,
     COLLEEN BERTONI, BRETT BODE, KURT BRORSEN, CALEB CARLIN, GALINA CHABAN,
     WEI CHEN, CHEOL HO CHOI, PAUL DAY, ALBERT DEFUSCO, NUWAN DESILVA,
     TIM DUDLEY, DMITRI FEDOROV, ALEX FINDLATER, GRAHAM FLETCHER, 
     MARK FREITAG, KURT GLAESEMANN, ANASTASIA GUNINA,
     DAN KEMP, GRANT MERRILL, NORIYUKI MINEZAWA, JONATHAN MULLIN,
     TAKESHI NAGATA, SEAN NEDD, HEATHER NETZLOFF, BOSILJKA NJEGIC, RYAN OLSON,
     MIKE PAK, BUU PHAM,
     SPENCER PRUITT, LUKE ROSKOP, JIM SHOEMAKER, LYUDMILA SLIPCHENKO,
     TONY SMITH, SAROM SOK LEANG, JIE SONG, TETSUYA TAKETSUGU, SIMON WEBB,
     PENG XU, SOOHAENG YOO, FEDERICO ZAHARIEV

  ADDITIONAL CODE HAS BEEN PROVIDED BY COLLABORATORS IN OTHER GROUPS:
     IOWA STATE UNIVERSITY:
          JOE IVANIC, AARON WEST, LAIMUTIS BYTAUTAS, KLAUS RUEDENBERG
     UNIVERSITY OF TOKYO: KIMIHIKO HIRAO, TAKAHITO NAKAJIMA,
          TAKAO TSUNEDA, MUNEAKI KAMIYA, SUSUMU YANAGISAWA,
          KIYOSHI YAGI, MAHITO CHIBA, SEIKEN TOKURA, NAOAKI KAWAKAMI
     UNIVERSITY OF AARHUS: FRANK JENSEN
     UNIVERSITY OF IOWA: VISVALDAS KAIRYS, HUI LI
     NATIONAL INST. OF STANDARDS AND TECHNOLOGY: WALT STEVENS, DAVID GARMER
     UNIVERSITY OF PISA: BENEDETTA MENNUCCI, JACOPO TOMASI
     UNIVERSITY OF MEMPHIS: HENRY KURTZ, PRAKASHAN KORAMBATH
     UNIVERSITY OF ALBERTA: TOBY ZENG, MARIUSZ KLOBUKOWSKI
     UNIVERSITY OF NEW ENGLAND: MARK SPACKMAN
     MIE UNIVERSITY: HIROAKI UMEDA
     NAT. INST. OF ADVANCED INDUSTRIAL SCIENCE AND TECHNOLOGY: KAZUO KITAURA
     MICHIGAN STATE UNIVERSITY:
          KAROL KOWALSKI, MARTA WLOCH, JEFFREY GOUR, JESSE LUTZ,
          WEI LI, JUN SHEN, J. EMILIANO DEUSTUA, PIOTR PIECUCH
     UNIVERSITY OF MINNESOTA:
          YINAN SHU
     UNIVERSITY OF SILESIA: MONIKA MUSIAL, STANISLAW KUCHARSKI
     FACULTES UNIVERSITAIRES NOTRE-DAME DE LA PAIX:
          OLIVIER QUINET, BENOIT CHAMPAGNE
     UNIVERSITY OF CALIFORNIA - SANTA BARBARA: BERNARD KIRTMAN
     INSTITUTE FOR MOLECULAR SCIENCE:
          KAZUYA ISHIMURA, MICHIO KATOUDA, AND SHIGERU NAGASE
     UNIVERSITY OF NOTRE DAME: ANNA POMOGAEVA, DAN CHIPMAN
     KYUSHU UNIVERSITY:
          HARUYUKI NAKANO,
          FENG LONG GU, JACEK KORCHOWIEC, MARCIN MAKOWSKI, AND YURIKO AOKI,
          HIROTOSHI MORI AND EISAKU MIYOSHI
     PENNSYLVANIA STATE UNIVERSITY:
          TZVETELIN IORDANOV, CHET SWALINA, JONATHAN SKONE,
          SHARON HAMMES-SCHIFFER
     WASEDA UNIVERSITY:
          MASATO KOBAYASHI, TOMOKO AKAMA, TSUGUKI TOUMA,
          TAKESHI YOSHIKAWA, YASUHIRO IKABATA, JUNJI SEINO,
          YUYA NAKAJIMA, HIROMI NAKAI
     NANJING UNIVERSITY: SHUHUA LI
     UNIVERSITY OF NEBRASKA:
          PEIFENG SU, DEJUN SI, NANDUN THELLAMUREGE, YALI WANG, HUI LI
     UNIVERSITY OF ZURICH: ROBERTO PEVERATI, KIM BALDRIDGE
     N. COPERNICUS UNIVERSITY AND JACKSON STATE UNIVERSITY:
          MARIA BARYSZ
     UNIVERSITY OF COPENHAGEN: Jimmy Kromann, CASPER STEINMANN
     TOKYO INSTITUTE OF TECHNOLOGY: HIROYA NAKATA
     NAGOYA UNIVERSITY: YOSHIO NISHIMOTO, STEPHAN IRLE
     MOSCOW STATE UNIVERSITY: VLADIMIR MIRONOV
     A.N.NESMEYANOV INSTITUTE OF ORGANOELEMENT COMPOUNDS OF RUSSIAN ACADEMY OF SCIENCES:
          IGOR S. GERASIMOV

 EXECUTION OF GAMESS BEGUN Fri Nov 12 20:45:11 2021

            ECHO OF THE FIRST FEW INPUT CARDS -
 INPUT CARD>!File created by the GAMESS Input Deck Generator Plugin for Avogadro            
 INPUT CARD> $BASIS GBASIS=STO NGAUSS=3 $END                                                
 INPUT CARD> $CONTRL SCFTYP=RHF RUNTYP=OPTIMIZE NZVAR=1 mult=1  ICHARG=0 $END               
 INPUT CARD> $STATPT hssend=.t. OPTTOL=0.0005 NSTEP=50 $END                                 
 INPUT CARD> $STATPT HESS=calc ihrep=5 $END                                                 
 INPUT CARD> $FORCE nvib=2 $END                                                             
 INPUT CARD> $ZMAT DLC=.t. auto=.t. nonvdw(1)=1,6,3,4 $END                                  
 INPUT CARD> $ZMAT IFZMAT(1)=1,1,6,1,3,4 fvalue(1)=2.00,2.00 $END                           
 INPUT CARD>                                                                                
 INPUT CARD> $DATA                                                                          
 INPUT CARD>Title                                                                           
 INPUT CARD>C1                                                                              
 INPUT CARD>C     6.0     4.42106    -1.68332    -2.83796                                   
 INPUT CARD>C     6.0     3.28979    -1.81003    -2.09495                                   
 INPUT CARD>C     6.0     3.11190    -0.95633    -0.84547                                   
 INPUT CARD>C     6.0     4.36329    -1.03178     0.08707                                   
 INPUT CARD>C     6.0     5.29083    -2.13421    -0.40120                                   
 INPUT CARD>C     6.0     5.95302    -1.86463    -1.56096                                   
 INPUT CARD>C     6.0     6.65428    -0.55931    -1.57554                                   
 INPUT CARD>C     6.0     6.27288     0.47419    -0.81168                                   
 INPUT CARD>C     6.0     5.09005     0.31454     0.07556                                   
 INPUT CARD>O     8.0     4.70077     1.27857     0.73399                                   
 INPUT CARD>H     1.0     4.59642    -2.40702    -3.63753                                   
 INPUT CARD>H     1.0     4.76400    -0.66055    -3.03061                                   
 INPUT CARD>H     1.0     2.71240    -2.73066    -2.14841                                   
 INPUT CARD>H     1.0     2.86060     0.07266    -1.12869                                   
 INPUT CARD>H     1.0     2.24826    -1.34873    -0.29408                                   
 INPUT CARD>H     1.0     4.07231    -1.23692     1.12371                                   
 INPUT CARD>H     1.0     5.06061    -3.15930    -0.12471                                   
 INPUT CARD>H     1.0     6.48167    -2.68100    -2.06492                                   
 INPUT CARD>H     1.0     7.52104    -0.47596    -2.22552                                   
 INPUT CARD>H     1.0     6.77821     1.43031    -0.80407                                   
 INPUT CARD> $END                                                                           
    1000000 WORDS OF MEMORY AVAILABLE

     BASIS OPTIONS
     -------------
     GBASIS=STO          IGAUSS=       3      POLAR=NONE    
     NDFUNC=       0     NFFUNC=       0     DIFFSP=       F
     NPFUNC=       0      DIFFS=       F     BASNAM=        


     RUN TITLE
     ---------
 Title                                                                           

 THE POINT GROUP OF THE MOLECULE IS C1      
 THE ORDER OF THE PRINCIPAL AXIS IS     0

 ATOM      ATOMIC                      COORDINATES (BOHR)
           CHARGE         X                   Y                   Z
 C           6.0     8.3545919753       -3.1810135497       -5.3629667641
 C           6.0     6.2168016571       -3.4204607296       -3.9588814580
 C           6.0     5.8806383012       -1.8072016538       -1.5977066308
 C           6.0     8.2454225050       -1.9497814796        0.1645384418
 C           6.0     9.9982189476       -4.0330721003       -0.7581580663
 C           6.0    11.2495765994       -3.5236397685       -2.9497866778
 C           6.0    12.5747658456       -1.0569426422       -2.9773388827
 C           6.0    11.8540243539        0.8960891661       -1.5338527897
 C           6.0     9.6187997638        0.5943944122        0.1427876956
 O           8.0     8.8831672313        2.4161469561        1.3870399777
 H           1.0     8.6859743245       -4.5486082470       -6.8739349721
 H           1.0     9.0026546055       -1.2482585012       -5.7270224756
 H           1.0     5.1256927691       -5.1601991656       -4.0599062093
 H           1.0     5.4057501605        0.1373074903       -2.1329148251
 H           1.0     4.2485953492       -2.5487301314       -0.5557306185
 H           1.0     7.6955500371       -2.3374398687        2.1235039897
 H           1.0     9.5631662307       -5.9702113130       -0.2356677279
 H           1.0    12.2485802428       -5.0663553731       -3.9021329866
 H           1.0    14.2127047427       -0.8994339811       -4.2056229802
 H           1.0    12.8089595872        2.7028939775       -1.5194719749

          INTERNUCLEAR DISTANCES (ANGS.)
          ------------------------------

                1 C          2 C          3 C          4 C          5 C     

   1 C       0.0000000    1.3593716 *  2.4924748 *  2.9972725 *  2.6263284 *
   2 C       1.3593716 *  0.0000000    1.5236958 *  2.5532894 *  2.6415985 *
   3 C       2.4924748 *  1.5236958 *  0.0000000    1.5624662 *  2.5164485 *
   4 C       2.9972725 *  2.5532894 *  1.5624662 *  0.0000000    1.5212133 *
   5 C       2.6263284 *  2.6415985 *  2.5164485 *  1.5212133 *  0.0000000  
   6 C       2.0026242 *  2.7167850 *  3.0673927    2.4365721 *  1.3624288 *
   7 C       2.8007810 *  3.6268278    3.6385551    2.8698667 *  2.3913135 *
   8 C       3.4914033    3.9702983    3.4697729    2.5927266 *  2.8172090 *
   9 C       3.5954959    3.5307007    2.5251701 *  1.5299968 *  2.5027963 *
  10 O       4.6486403    4.4196398    3.1644873    2.4228321 *  3.6447077  
  11 H       1.0926138 *  2.1078975 *  3.4790660    3.9772201    3.3212140  
  12 H       1.0958012 *  2.0904686 *  2.7553143 *  3.1651712    3.0599053  
  13 H       2.1194148 *  1.0880243 *  2.2372974 *  3.2571463    3.1712453  
  14 H       2.9051859 *  2.1592554 *  1.0964423 *  2.2261935 *  3.3623704  
  15 H       3.3621921    2.1308954 *  1.0972159 *  2.1723454 *  3.1441510  
  16 H       4.0019656    3.3616313    2.2087979 *  1.0960722 *  2.1483181 *
  17 H       3.1542458    2.9729074 *  3.0282078    2.2488769 *  1.0863966 *
  18 H       2.4164167 *  3.3087140    3.9770460    3.4407152    2.1177921 *
  19 H       3.3827026    4.4384984    4.6449767    3.9532763    3.3244207  
  20 H       4.4031303    4.9330770    4.3748821    3.5620017    3.8833499  

                6 C          7 C          8 C          9 C         10 O     

   1 C       2.0026242 *  2.8007810 *  3.4914033    3.5954959    4.6486403  
   2 C       2.7167850 *  3.6268278    3.9702983    3.5307007    4.4196398  
   3 C       3.0673927    3.6385551    3.4697729    2.5251701 *  3.1644873  
   4 C       2.4365721 *  2.8698667 *  2.5927266 *  1.5299968 *  2.4228321 *
   5 C       1.3624288 *  2.3913135 *  2.8172090 *  2.5027963 *  3.6447077  
   6 C       0.0000000    1.4818362 *  2.4766530 *  2.8586180 *  4.0883532  
   7 C       1.4818362 *  0.0000000    1.3405485 *  2.4365058 *  3.5394820  
   8 C       2.4766530 *  1.3405485 *  0.0000000    1.4872020 *  2.3468389 *
   9 C       2.8586180 *  2.4365058 *  1.4872020 *  0.0000000    1.2306189 *
  10 O       4.0883532    3.5394820    2.3468389 *  1.2306189 *  0.0000000  
  11 H       2.5390340 *  3.4497279    4.3700478    4.6300752    5.7187979  
  12 H       2.2413051 *  2.3876006 *  2.9134179 *  3.2719109    4.2351384  
  13 H       3.4053962    4.5366682    4.9734222    4.4578588    5.3231354  
  14 H       3.6746444    3.8718302    3.4504169    2.5454216 *  2.8827108 *
  15 H       3.9492258    4.6560000    4.4484282    3.3134380    3.7382400  
  16 H       3.3374456    3.7962712    3.3935439    2.1310658 *  2.6219332 *
  17 H       2.1296432 *  3.3770756    3.8915005    3.4797326    4.5344835  
  18 H       1.0954024 *  2.1842288 *  3.4013861    3.9359269    5.1656264  
  19 H       2.1974374 *  1.0865975 *  2.1117841 *  3.4394145    4.4487074  
  20 H       3.4800073    2.1375482 *  1.0814720 *  2.2064849 *  2.5892877 *

               11 H         12 H         13 H         14 H         15 H     

   1 C       1.0926138 *  1.0958012 *  2.1194148 *  2.9051859 *  3.3621921  
   2 C       2.1078975 *  2.0904686 *  1.0880243 *  2.1592554 *  2.1308954 *
   3 C       3.4790660    2.7553143 *  2.2372974 *  1.0964423 *  1.0972159 *
   4 C       3.9772201    3.1651712    3.2571463    2.2261935 *  2.1723454 *
   5 C       3.3212140    3.0599053    3.1712453    3.3623704    3.1441510  
   6 C       2.5390340 *  2.2413051 *  3.4053962    3.6746444    3.9492258  
   7 C       3.4497279    2.3876006 *  4.5366682    3.8718302    4.6560000  
   8 C       4.3700478    2.9134179 *  4.9734222    3.4504169    4.4484282  
   9 C       4.6300752    3.2719109    4.4578588    2.5454216 *  3.3134380  
  10 O       5.7187979    4.2351384    5.3231354    2.8827108 *  3.7382400  
  11 H       0.0000000    1.8565000 *  2.4231699 *  3.9314326    4.2204847  
  12 H       1.8565000 *  0.0000000    3.0451100    2.7888758 *  3.7803619  
  13 H       2.4231699 *  3.0451100    0.0000000    2.9867031 *  2.3587489 *
  14 H       3.9314326    2.7888758 *  2.9867031 *  0.0000000    1.7583753 *
  15 H       4.2204847    3.7803619    2.3587489 *  1.7583753 *  0.0000000  
  16 H       4.9308449    4.2507661    3.8454367    2.8734207 *  2.3129610 *
  17 H       3.6223338    3.8439542    3.1294064    4.0365313    3.3490540  
  18 H       2.4702904 *  2.8222625 *  3.7705216    4.6444933    4.7783447  
  19 H       3.7783815    2.8781093 *  5.3115569    4.8190996    5.6828159  
  20 H       5.2453603    3.6587181    5.9709072    4.1588772    5.3388763  

               16 H         17 H         18 H         19 H         20 H     

   1 C       4.0019656    3.1542458    2.4164167 *  3.3827026    4.4031303  
   2 C       3.3616313    2.9729074 *  3.3087140    4.4384984    4.9330770  
   3 C       2.2087979 *  3.0282078    3.9770460    4.6449767    4.3748821  
   4 C       1.0960722 *  2.2488769 *  3.4407152    3.9532763    3.5620017  
   5 C       2.1483181 *  1.0863966 *  2.1177921 *  3.3244207    3.8833499  
   6 C       3.3374456    2.1296432 *  1.0954024 *  2.1974374 *  3.4800073  
   7 C       3.7962712    3.3770756    2.1842288 *  1.0865975 *  2.1375482 *
   8 C       3.3935439    3.8915005    3.4013861    2.1117841 *  1.0814720 *
   9 C       2.1310658 *  3.4797326    3.9359269    3.4394145    2.2064849 *
  10 O       2.6219332 *  4.5344835    5.1656264    4.4487074    2.5892877 *
  11 H       4.9308449    3.6223338    2.4702904 *  3.7783815    5.2453603  
  12 H       4.2507661    3.8439542    2.8222625 *  2.8781093 *  3.6587181  
  13 H       3.8454367    3.1294064    3.7705216    5.3115569    5.9709072  
  14 H       2.8734207 *  4.0365313    4.6444933    4.8190996    4.1588772  
  15 H       2.3129610 *  3.3490540    4.7783447    5.6828159    5.3388763  
  16 H       0.0000000    2.4961639 *  4.2494404    4.8672518    4.2605571  
  17 H       2.4961639 *  0.0000000    2.4520598 *  4.2032644    4.9473427  
  18 H       4.2494404    2.4520598 *  0.0000000    2.4430071 *  4.3105160  
  19 H       4.8672518    4.2032644    2.4430071 *  0.0000000    2.4912210 *
  20 H       4.2605571    4.9473427    4.3105160    2.4912210 *  0.0000000  

  * ... LESS THAN  3.000


     ATOMIC BASIS SET
     ----------------
 THE CONTRACTED PRIMITIVE FUNCTIONS HAVE BEEN UNNORMALIZED
 THE CONTRACTED BASIS FUNCTIONS ARE NOW NORMALIZED TO UNITY

  SHELL TYPE  PRIMITIVE        EXPONENT          CONTRACTION COEFFICIENT(S)

 C         

      1   S       1            71.6168373    0.154328967295
      1   S       2            13.0450963    0.535328142282
      1   S       3             3.5305122    0.444634542185

      2   L       4             2.9412494   -0.099967229187    0.155916274999
      2   L       5             0.6834831    0.399512826089    0.607683718598
      2   L       6             0.2222899    0.700115468880    0.391957393099

 C         

      3   S       7            71.6168373    0.154328967295
      3   S       8            13.0450963    0.535328142282
      3   S       9             3.5305122    0.444634542185

      4   L      10             2.9412494   -0.099967229187    0.155916274999
      4   L      11             0.6834831    0.399512826089    0.607683718598
      4   L      12             0.2222899    0.700115468880    0.391957393099

 C         

      5   S      13            71.6168373    0.154328967295
      5   S      14            13.0450963    0.535328142282
      5   S      15             3.5305122    0.444634542185

      6   L      16             2.9412494   -0.099967229187    0.155916274999
      6   L      17             0.6834831    0.399512826089    0.607683718598
      6   L      18             0.2222899    0.700115468880    0.391957393099

 C         

      7   S      19            71.6168373    0.154328967295
      7   S      20            13.0450963    0.535328142282
      7   S      21             3.5305122    0.444634542185

      8   L      22             2.9412494   -0.099967229187    0.155916274999
      8   L      23             0.6834831    0.399512826089    0.607683718598
      8   L      24             0.2222899    0.700115468880    0.391957393099

 C         

      9   S      25            71.6168373    0.154328967295
      9   S      26            13.0450963    0.535328142282
      9   S      27             3.5305122    0.444634542185

     10   L      28             2.9412494   -0.099967229187    0.155916274999
     10   L      29             0.6834831    0.399512826089    0.607683718598
     10   L      30             0.2222899    0.700115468880    0.391957393099

 C         

     11   S      31            71.6168373    0.154328967295
     11   S      32            13.0450963    0.535328142282
     11   S      33             3.5305122    0.444634542185

     12   L      34             2.9412494   -0.099967229187    0.155916274999
     12   L      35             0.6834831    0.399512826089    0.607683718598
     12   L      36             0.2222899    0.700115468880    0.391957393099

 C         

     13   S      37            71.6168373    0.154328967295
     13   S      38            13.0450963    0.535328142282
     13   S      39             3.5305122    0.444634542185

     14   L      40             2.9412494   -0.099967229187    0.155916274999
     14   L      41             0.6834831    0.399512826089    0.607683718598
     14   L      42             0.2222899    0.700115468880    0.391957393099

 C         

     15   S      43            71.6168373    0.154328967295
     15   S      44            13.0450963    0.535328142282
     15   S      45             3.5305122    0.444634542185

     16   L      46             2.9412494   -0.099967229187    0.155916274999
     16   L      47             0.6834831    0.399512826089    0.607683718598
     16   L      48             0.2222899    0.700115468880    0.391957393099

 C         

     17   S      49            71.6168373    0.154328967295
     17   S      50            13.0450963    0.535328142282
     17   S      51             3.5305122    0.444634542185

     18   L      52             2.9412494   -0.099967229187    0.155916274999
     18   L      53             0.6834831    0.399512826089    0.607683718598
     18   L      54             0.2222899    0.700115468880    0.391957393099

 O         

     19   S      55           130.7093214    0.154328967295
     19   S      56            23.8088661    0.535328142282
     19   S      57             6.4436083    0.444634542185

     20   L      58             5.0331513   -0.099967229187    0.155916274999
     20   L      59             1.1695961    0.399512826089    0.607683718598
     20   L      60             0.3803890    0.700115468880    0.391957393099

 H         

     21   S      61             3.4252509    0.154328967295
     21   S      62             0.6239137    0.535328142282
     21   S      63             0.1688554    0.444634542185

 H         

     22   S      64             3.4252509    0.154328967295
     22   S      65             0.6239137    0.535328142282
     22   S      66             0.1688554    0.444634542185

 H         

     23   S      67             3.4252509    0.154328967295
     23   S      68             0.6239137    0.535328142282
     23   S      69             0.1688554    0.444634542185

 H         

     24   S      70             3.4252509    0.154328967295
     24   S      71             0.6239137    0.535328142282
     24   S      72             0.1688554    0.444634542185

 H         

     25   S      73             3.4252509    0.154328967295
     25   S      74             0.6239137    0.535328142282
     25   S      75             0.1688554    0.444634542185

 H         

     26   S      76             3.4252509    0.154328967295
     26   S      77             0.6239137    0.535328142282
     26   S      78             0.1688554    0.444634542185

 H         

     27   S      79             3.4252509    0.154328967295
     27   S      80             0.6239137    0.535328142282
     27   S      81             0.1688554    0.444634542185

 H         

     28   S      82             3.4252509    0.154328967295
     28   S      83             0.6239137    0.535328142282
     28   S      84             0.1688554    0.444634542185

 H         

     29   S      85             3.4252509    0.154328967295
     29   S      86             0.6239137    0.535328142282
     29   S      87             0.1688554    0.444634542185

 H         

     30   S      88             3.4252509    0.154328967295
     30   S      89             0.6239137    0.535328142282
     30   S      90             0.1688554    0.444634542185

 TOTAL NUMBER OF BASIS SET SHELLS             =   30
 NUMBER OF CARTESIAN GAUSSIAN BASIS FUNCTIONS =   60
 NUMBER OF ELECTRONS                          =   72
 CHARGE OF MOLECULE                           =    0
 SPIN MULTIPLICITY                            =    1
 NUMBER OF OCCUPIED ORBITALS (ALPHA)          =   36
 NUMBER OF OCCUPIED ORBITALS (BETA )          =   36
 TOTAL NUMBER OF ATOMS                        =   20
 THE NUCLEAR REPULSION ENERGY IS      513.9576478677

     $CONTRL OPTIONS
     ---------------
 SCFTYP=RHF          RUNTYP=OPTIMIZE     EXETYP=RUN     
 MPLEVL=       0     CITYP =NONE         CCTYP =NONE         VBTYP =NONE    
 DFTTYP=NONE         TDDFT =NONE    
 MULT  =       1     ICHARG=       0     NZVAR =       1     COORD =UNIQUE  
 PP    =NONE         RELWFN=NONE         LOCAL =NONE         NUMGRD=       F
 ISPHER=      -1     NOSYM =       0     MAXIT =      30     UNITS =ANGS    
 PLTORB=       F     MOLPLT=       F     AIMPAC=       F     FRIEND=        
 NPRINT=       7     IREST =       0     GEOM  =INPUT   
 NORMF =       0     NORMP =       0     ITOL  =      20     ICUT  =       9
 INTTYP=BEST         GRDTYP=BEST         QMTTOL= 1.0E-06

     $SYSTEM OPTIONS
     ---------------
  REPLICATED MEMORY=     1000000 WORDS (ON EVERY NODE).
 DISTRIBUTED MEMDDI=           0 MILLION WORDS IN AGGREGATE,
 MEMDDI DISTRIBUTED OVER   1 PROCESSORS IS           0 WORDS/PROCESSOR.
 TOTAL MEMORY REQUESTED ON EACH PROCESSOR=     1000000 WORDS.
 TIMLIM=      525600.00 MINUTES, OR     365.0 DAYS.
 PARALL= F  BALTYP=  DLB     KDIAG=    0  COREFL= F
 MXSEQ2=     300 MXSEQ3=     150  mem10=         0

          ----------------
          PROPERTIES INPUT
          ----------------

     MOMENTS            FIELD           POTENTIAL          DENSITY
 IEMOM =       1   IEFLD =       0   IEPOT =       0   IEDEN =       0
 WHERE =COMASS     WHERE =NUCLEI     WHERE =NUCLEI     WHERE =NUCLEI  
 OUTPUT=BOTH       OUTPUT=BOTH       OUTPUT=BOTH       OUTPUT=BOTH    
 IEMINT=       0   IEFINT=       0                     IEDINT=       0
                                                       MORB  =       0
          EXTRAPOLATION IN EFFECT
          SOSCF IN EFFECT
 ORBITAL PRINTING OPTION: NPREO=     1    60     2     1

     -------------------------------
     INTEGRAL TRANSFORMATION OPTIONS
     -------------------------------
     NWORD  =            0
     CUTOFF = 1.0E-09     MPTRAN =       0
     DIRTRF =       F     AOINTS =DUP     

          ----------------------
          INTEGRAL INPUT OPTIONS
          ----------------------
 NOPK  =       1 NORDER=       0 SCHWRZ=       T


 -----------------------------------------------
  STATISTICS ON AUTOMATIC COORDINATE GENERATION 
 -----------------------------------------------
  NUMBER OF USER SPECIFIED BONDS                             2
  NUMBER OF BONDS                                           22
  NUMBER OF ANGLES                                          45
  NUMBER OF TORSIONS                                        62
  NUMBER OF EXTRA COORD.                                     0
  NUMBER OF EXTRA COORD. FOR CONSTRAINTS                     0
  NUMBER OF CONSTRAINED COORD.                               2

  TOTAL NUMBER OF PRIMITIVES                               129
 -----------------------------------------------

   --- ENCODED Z MATRIX ---
 COORD  TYPE   I   J   K   L   M   N
    1      1    1   6
    2      1    3   4
    3      1    1   2
    4      1    1  12
    5      1    1  11
    6      1    2  13
    7      1    2   3
    8      1    3  14
    9      1    3   4
   10      1    3  15
   11      1    4   5
   12      1    4   9
   13      1    4  16
   14      1    5   6
   15      1    5  17
   16      1    6   7
   17      1    6  18
   18      1    7   8
   19      1    7  19
   20      1    8  20
   21      1    8   9
   22      1    9  10
   23      2    1   6   7
   24      2    1   6   5
   25      2    1   2  13
   26      2    1   2   3
   27      2    1   6  18
   28      2    2   1   6
   29      2    2   3   4
   30      2    2   3   4
   31      2    2   3  14
   32      2    2   1  12
   33      2    2   3  15
   34      2    2   1  11
   35      2    3   4   9
   36      2    3   4   5
   37      2    3   2  13
   38      2    3   4   9
   39      2    3   4   5
   40      2    3   4  16
   41      2    3   4  16
   42      2    4   5   6
   43      2    4   3  15
   44      2    4   3  14
   45      2    4   3  14
   46      2    4   9  10
   47      2    4   9   8
   48      2    4   3  15
   49      2    4   5  17
   50      2    5   4  16
   51      2    5   4   9
   52      2    5   6  18
   53      2    5   6   7
   54      2    6   1  11
   55      2    6   1  12
   56      2    6   7  19
   57      2    6   7   8
   58      2    6   5  17
   59      2    7   8   9
   60      2    7   8  20
   61      2    7   6  18
   62      2    8   9  10
   63      2    8   7  19
   64      2    9   8  20
   65      2    9   4  16
   66      2   11   1  12
   67      2   14   3  15
   68      3    1   6   5  17
   69      3    1   2   3  15
   70      3    1   6   7  19
   71      3    1   2   3   4
   72      3    1   6   5   4
   73      3    1   6   7   8
   74      3    1   2   3  14
   75      3    2   3   4   5
   76      3    2   1   6   5
   77      3    2   1   6  18
   78      3    2   1   6   7
   79      3    2   3   4  16
   80      3    2   3   4   9
   81      3    3   2   1  12
   82      3    3   2   1   6
   83      3    3   4   5  17
   84      3    3   4   5   6
   85      3    3   4   9  10
   86      3    3   4   9   8
   87      3    3   2   1  11
   88      3    4   3   2  13
   89      3    4   9   8  20
   90      3    4   9   8   7
   91      3    4   5   6  18
   92      3    4   5   6   7
   93      3    5   6   7  19
   94      3    5   6   7   8
   95      3    5   6   1  12
   96      3    5   4   3  15
   97      3    5   4   3  14
   98      3    5   4   9   8
   99      3    5   4   9  10
  100      3    5   6   1  11
  101      3    6   1   2  13
  102      3    6   5   4  16
  103      3    6   5   4   9
  104      3    6   7   8   9
  105      3    6   7   8  20
  106      3    7   6   5  17
  107      3    7   6   1  11
  108      3    7   8   9  10
  109      3    7   6   1  12
  110      3    8   9   4  16
  111      3    8   7   6  18
  112      3    9   4   5  17
  113      3    9   4   3  15
  114      3    9   4   3  14
  115      3    9   8   7  19
  116      3   10   9   4  16
  117      3   10   9   8  20
  118      3   11   1   2  13
  119      3   11   1   6  18
  120      3   12   1   2  13
  121      3   12   1   6  18
  122      3   13   2   3  15
  123      3   13   2   3  14
  124      3   14   3   4  16
  125      3   15   3   4  16
  126      3   16   4   5  17
  127      3   17   5   6  18
  128      3   18   6   7  19
  129      3   19   7   8  20

          INDEP./SYM. INTERNAL COORDINATES
          --------------------------------
 CRD  1=   1.0000 (  1)
 CRD  2=   1.0000 (  2)
 CRD  3=   0.1454 (  5)  0.2486 (  7) -0.1647 ( 11) -0.1680 ( 12)  0.2477 ( 18)
           0.2080 ( 24) -0.1507 ( 25)  0.2295 ( 26) -0.1615 ( 27) -0.3309 ( 28)
          -0.1388 ( 36) -0.1388 ( 39)  0.1107 ( 42) -0.1402 ( 47) -0.1145 ( 49)
           0.1569 ( 51) -0.1593 ( 53)  0.1679 ( 54)  0.1329 ( 55)  0.1675 ( 61)
           0.1740 ( 62) -0.1140 ( 64) -0.1051 ( 66)  0.1464 ( 70)  0.1546 ( 73)
           0.1445 (109)
 CRD  4=  -0.1976 (  3) -0.1111 ( 10)  0.1070 ( 15)  0.1472 ( 16) -0.1094 ( 18)
          -0.1319 ( 19) -0.3653 ( 21)  0.1456 ( 24) -0.2065 ( 26)  0.2211 ( 29)
           0.2211 ( 30) -0.1528 ( 31)  0.1767 ( 37) -0.2121 ( 42)  0.2105 ( 46)
           0.1400 ( 51)  0.1394 ( 54)  0.1550 ( 57)  0.1382 ( 58)  0.1401 ( 60)
          -0.2159 ( 62) -0.1798 ( 63)  0.1087 ( 87)  0.1056 (114)
 CRD  5=  -0.1045 (  3) -0.2900 (  7) -0.2335 ( 11) -0.1615 ( 12)  0.2232 ( 21)
          -0.1006 ( 31) -0.1507 ( 34) -0.3432 ( 46) -0.1083 ( 49)  0.1599 ( 54)
           0.1064 ( 55) -0.1181 ( 56)  0.1453 ( 58) -0.1482 ( 59)  0.3068 ( 62)
           0.2120 ( 64) -0.1024 ( 76) -0.1245 ( 78)  0.1441 ( 87)  0.1212 ( 92)
          -0.1210 ( 93) -0.1440 ( 94)  0.1268 (118)
 CRD  6=  -0.3622 (  3) -0.1113 (  5) -0.1749 (  7) -0.1468 ( 10) -0.1460 ( 12)
          -0.2595 ( 14) -0.2582 ( 16) -0.1402 ( 19) -0.1055 ( 27) -0.1049 ( 33)
           0.1045 ( 34)  0.1256 ( 49) -0.2015 ( 54) -0.2368 ( 56)  0.1566 ( 62)
           0.1478 ( 63) -0.1049 ( 65) -0.1277 ( 71)  0.1021 ( 75)  0.1659 ( 80)
          -0.1169 ( 87) -0.1332 ( 88)  0.1158 (114) -0.1011 (118)
 CRD  7=   0.1352 (  3) -0.1653 (  7) -0.3121 ( 12) -0.3139 ( 16) -0.2687 ( 18)
          -0.2966 ( 20) -0.3409 ( 21) -0.1311 ( 22)  0.1108 ( 25) -0.1038 ( 28)
          -0.1681 ( 37)  0.1535 ( 46)  0.2116 ( 55)  0.1929 ( 59) -0.1102 ( 62)
          -0.1770 ( 64)  0.1149 ( 82)  0.1366 (101)
 CRD  8=   0.1329 (  3)  0.2827 ( 11)  0.2064 ( 12) -0.2360 ( 14) -0.1546 ( 16)
           0.1481 ( 18)  0.2007 ( 22)  0.1066 ( 25)  0.1140 ( 46) -0.1542 ( 47)
           0.3212 ( 49)  0.1387 ( 54) -0.2490 ( 56)  0.1470 ( 57) -0.3176 ( 58)
           0.1018 ( 63)  0.1413 ( 68) -0.1040 ( 91) -0.1412 ( 93) -0.1328 ( 94)
           0.1620 (106)  0.1042 (118)
 CRD  9=  -0.1121 (  3) -0.1078 (  5) -0.2489 (  7)  0.3944 ( 18)  0.1586 ( 19)
           0.1734 ( 46) -0.1863 ( 56) -0.1206 ( 57)  0.3929 ( 60) -0.2401 ( 62)
           0.3072 ( 63) -0.3669 ( 64)
 CRD 10=   0.1489 (  6)  0.3739 (  7)  0.1258 ( 11) -0.2512 ( 12) -0.1002 ( 15)
          -0.2175 ( 16) -0.2033 ( 25) -0.1326 ( 26)  0.1451 ( 28)  0.3357 ( 37)
          -0.1084 ( 46) -0.1751 ( 56)  0.1230 ( 60) -0.1074 ( 61)  0.2394 ( 63)
          -0.1772 ( 64)  0.1068 ( 92)  0.1182 ( 96) -0.1170 (101) -0.1070 (103)
           0.1193 (106) -0.1241 (112)
 CRD 11=   0.4024 (  3)  0.1035 (  4)  0.1574 (  6)  0.2221 ( 14)  0.1876 ( 15)
           0.1112 ( 18)  0.1787 ( 20)  0.2679 ( 25) -0.1061 ( 26)  0.2287 ( 34)
          -0.1613 ( 37) -0.1345 ( 42) -0.1119 ( 46)  0.1287 ( 47) -0.2031 ( 54)
          -0.2487 ( 56)  0.1288 ( 57)  0.1600 ( 58) -0.1796 ( 59)  0.1614 ( 60)
           0.1204 ( 63) -0.1010 ( 66) -0.1204 (100)  0.1006 (101) -0.1572 (107)
 CRD 12=   0.1074 (  3)  0.1347 (  7) -0.3681 ( 11) -0.1635 ( 13) -0.3824 ( 14)
          -0.1774 ( 15) -0.2061 ( 17) -0.1340 ( 18) -0.1801 ( 19)  0.1289 ( 20)
          -0.1593 ( 21) -0.2298 ( 22)  0.1464 ( 31)  0.1437 ( 47)  0.1006 ( 57)
          -0.2345 ( 59)  0.1397 ( 60) -0.1098 ( 62)  0.1205 ( 69) -0.1014 ( 86)
           0.1112 (115)
 CRD 13=   0.1697 (  3) -0.1735 (  7) -0.2119 ( 11) -0.1750 ( 15) -0.1692 ( 16)
          -0.1002 ( 17)  0.2589 ( 25)  0.1046 ( 29)  0.1046 ( 30) -0.2278 ( 33)
          -0.2416 ( 37)  0.1073 ( 40)  0.1073 ( 41)  0.1873 ( 43)  0.1873 ( 48)
          -0.1470 ( 49) -0.1004 ( 51) -0.1121 ( 55)  0.1149 ( 63)  0.1374 ( 73)
          -0.1462 ( 82) -0.1463 ( 83) -0.1310 ( 84)  0.1454 ( 85)  0.1421 ( 86)
           0.1350 ( 88)  0.1367 ( 98)  0.1401 ( 99) -0.1324 (103)  0.1180 (111)
          -0.1477 (112) -0.1311 (113)  0.1301 (123)
 CRD 14=  -0.1482 (  3) -0.1895 (  6)  0.1719 (  8)  0.1093 ( 13)  0.1815 ( 15)
          -0.1028 ( 17)  0.1349 ( 20) -0.2098 ( 22) -0.1257 ( 25)  0.1476 ( 26)
          -0.1281 ( 29) -0.1281 ( 30) -0.1130 ( 32)  0.1085 ( 36)  0.1085 ( 39)
          -0.1152 ( 42)  0.1322 ( 44)  0.1322 ( 45)  0.1639 ( 47)  0.1367 ( 49)
          -0.1276 ( 52)  0.2707 ( 55) -0.1436 ( 59) -0.1156 ( 62) -0.1198 ( 69)
           0.1071 ( 73)  0.1030 ( 76) -0.1856 ( 81) -0.1049 ( 88)  0.1443 ( 98)
           0.1100 ( 99)  0.1169 (100)  0.1314 (111) -0.2041 (120) -0.1285 (122)
 CRD 15=   0.1422 (  3)  0.1499 (  4) -0.1330 (  7)  0.1697 ( 10)  0.1907 ( 11)
          -0.1330 ( 12) -0.1911 ( 14)  0.1629 ( 16) -0.1024 ( 22) -0.2542 ( 31)
           0.1736 ( 32)  0.1079 ( 35)  0.1079 ( 38)  0.1974 ( 44)  0.1974 ( 45)
          -0.1347 ( 46)  0.1300 ( 49) -0.1167 ( 55)  0.1094 ( 56) -0.1128 ( 58)
           0.1504 ( 61) -0.1404 ( 63) -0.1406 ( 65)  0.1306 ( 68)  0.1561 ( 74)
          -0.1087 ( 75) -0.1411 ( 77) -0.1592 ( 79)  0.1665 ( 81)  0.1267 (109)
           0.1590 (120)  0.1609 (123)  0.1220 (126)  0.1306 (127)
 CRD 16=   0.1966 (  8) -0.3404 ( 13)  0.3614 ( 17) -0.1618 ( 19)  0.1615 ( 22)
           0.1174 ( 27) -0.1050 ( 32)  0.1007 ( 36)  0.1007 ( 39)  0.1141 ( 43)
          -0.1079 ( 47)  0.1141 ( 48) -0.1807 ( 49) -0.2021 ( 50)  0.1111 ( 55)
           0.1095 ( 57)  0.1989 ( 58) -0.1097 ( 70) -0.1055 ( 73)  0.1043 ( 80)
          -0.1004 ( 86) -0.1257 ( 95) -0.1281 ( 96) -0.1303 ( 97)  0.1280 ( 99)
          -0.1187 (108) -0.1529 (110) -0.1642 (112)
 CRD 17=   0.2127 (  4) -0.1258 (  5)  0.3223 (  6) -0.1111 ( 10) -0.1400 ( 14)
           0.1136 ( 15)  0.1032 ( 16) -0.2143 ( 17)  0.3247 ( 19) -0.1712 ( 20)
           0.1948 ( 22) -0.1368 ( 26) -0.1494 ( 52)  0.1240 ( 53)  0.1601 ( 55)
           0.1095 ( 56) -0.1526 ( 57)  0.1167 ( 59) -0.1869 ( 77) -0.1901 ( 78)
          -0.1493 ( 81) -0.1082 ( 90) -0.1036 (107) -0.1082 (108) -0.1028 (109)
          -0.1005 (119) -0.1198 (120)
 CRD 18=   0.1238 (  4) -0.1238 (  5)  0.1931 (  6) -0.1125 ( 10)  0.4466 ( 13)
          -0.3247 ( 15)  0.3983 ( 17) -0.1270 ( 19)  0.1195 ( 20) -0.1567 ( 22)
           0.1394 ( 42)  0.1268 ( 55) -0.1163 ( 76)  0.1121 ( 86) -0.1055 ( 89)
          -0.1081 ( 90) -0.1115 ( 95)  0.1084 ( 97)  0.1074 (104)  0.1047 (105)
          -0.1023 (120)
 CRD 19=   0.1293 ( 10)  0.1730 ( 13)  0.1123 ( 16)  0.1185 ( 19) -0.1528 ( 27)
          -0.1716 ( 33)  0.1366 ( 34)  0.1025 ( 40)  0.1025 ( 41)  0.1867 ( 43)
          -0.1008 ( 44) -0.1008 ( 45)  0.1867 ( 48) -0.2301 ( 54) -0.1016 ( 69)
          -0.1265 ( 81) -0.1131 ( 86) -0.2464 ( 87)  0.1270 ( 89)  0.1441 ( 90)
           0.2054 ( 91)  0.1412 ( 92) -0.1040 ( 93) -0.1218 ( 94) -0.1230 ( 98)
           0.1115 (106)  0.1145 (108) -0.1950 (110) -0.1432 (111) -0.1023 (113)
          -0.1638 (116) -0.2085 (118) -0.1320 (122)  0.1757 (127) -0.1253 (128)
 CRD 20=   0.3462 (  4) -0.2209 (  5)  0.3013 (  6)  0.1053 (  8) -0.2024 ( 10)
          -0.1281 ( 13)  0.1349 ( 17) -0.1012 ( 19)  0.1822 ( 31)  0.1513 ( 32)
          -0.1330 ( 34) -0.1325 ( 40) -0.1325 ( 41) -0.1090 ( 44) -0.1090 ( 45)
           0.1037 ( 90)  0.1308 ( 91)  0.1181 ( 95) -0.1039 ( 97) -0.2066 (102)
          -0.1133 (103) -0.1568 (104) -0.1290 (105)  0.1183 (107)  0.1198 (108)
           0.1377 (109) -0.1170 (114) -0.1420 (115) -0.1002 (123) -0.1535 (126)
          -0.1143 (129)
 CRD 21=   0.1823 (  6)  0.5459 (  8) -0.1985 ( 10)  0.2769 ( 13)  0.1332 ( 15)
          -0.1587 ( 17)  0.1536 ( 44)  0.1536 ( 45) -0.1077 ( 50)  0.1090 ( 54)
          -0.1681 ( 55)  0.1160 ( 79)  0.2051 ( 81)  0.1235 ( 87) -0.1637 (110)
          -0.1272 (111) -0.1509 (116)  0.1063 (118)  0.1879 (120)  0.1085 (123)
          -0.1051 (128)
 CRD 22=  -0.2501 (  4) -0.1832 (  6)  0.1424 (  8) -0.3239 ( 10)  0.1130 ( 13)
          -0.2272 ( 15) -0.1000 ( 31)  0.1384 ( 33)  0.1114 ( 34) -0.2404 ( 43)
           0.1560 ( 44)  0.1560 ( 45) -0.2404 ( 48) -0.1244 ( 54)  0.2491 ( 69)
           0.1052 ( 72)  0.2071 ( 74) -0.1088 ( 84) -0.1316 ( 87) -0.1699 (102)
          -0.1061 (119)  0.1883 (122)  0.1463 (123) -0.1372 (126)
 CRD 23=   0.4229 (  4)  0.7132 (  5)  0.1024 (  8) -0.1246 ( 15)  0.1078 ( 19)
          -0.1653 ( 32)  0.2069 ( 66)  0.1276 ( 81) -0.2017 ( 95) -0.1985 (109)
           0.1124 (120) -0.2099 (121)
 CRD 24=   0.4239 (  4)  0.2568 ( 10) -0.1250 ( 11)  0.1081 ( 12)  0.1491 ( 13)
          -0.1547 ( 19)  0.2250 ( 22) -0.1355 ( 31)  0.1548 ( 33) -0.1182 ( 34)
          -0.1081 ( 81) -0.1643 ( 87)  0.1729 ( 96)  0.1696 ( 97)  0.1847 (100)
           0.1796 (107)  0.1718 (113)  0.1684 (114) -0.1371 (118)  0.1849 (119)
           0.2055 (124)  0.2089 (125)
 CRD 25=  -0.1229 (  4)  0.5027 (  8)  0.6133 ( 10) -0.1750 ( 15)  0.2349 ( 67)
          -0.1705 ( 74)  0.1317 ( 97)  0.1256 (114) -0.1414 (123)  0.1245 (124)
 CRD 26=   0.1656 (  4) -0.2235 (  6)  0.2131 (  8)  0.3206 ( 15) -0.1672 ( 22)
           0.1029 ( 29)  0.1029 ( 30) -0.1035 ( 33) -0.1086 ( 43) -0.1086 ( 48)
          -0.1215 ( 54)  0.1852 ( 67)  0.2790 ( 69)  0.1411 ( 71)  0.1127 ( 74)
          -0.1551 ( 81) -0.1151 ( 82) -0.2465 ( 87) -0.1023 ( 91) -0.1863 ( 96)
           0.1019 (100)  0.1096 (107) -0.1866 (113) -0.1778 (118)  0.1132 (119)
           0.2105 (122) -0.1093 (124) -0.2186 (125)
 CRD 27=  -0.2311 ( 13) -0.1718 ( 27) -0.1271 ( 73) -0.2401 ( 89) -0.1483 ( 90)
           0.2081 ( 91)  0.1276 ( 92) -0.1455 ( 93) -0.1809 ( 94) -0.1478 (102)
           0.1961 (104)  0.2936 (105)  0.1035 (106) -0.1338 (108)  0.1519 (110)
          -0.2775 (111)  0.1594 (115)  0.1345 (116) -0.2256 (117) -0.1151 (126)
           0.1840 (127) -0.2420 (128)  0.2569 (129)
 CRD 28=  -0.1789 ( 12) -0.2146 ( 13)  0.2047 ( 17)  0.1128 ( 18)  0.4369 ( 19)
           0.2448 ( 20) -0.2683 ( 22)  0.1260 ( 40)  0.1260 ( 41)  0.2574 ( 46)
          -0.3107 ( 60) -0.2419 ( 62)  0.3031 ( 64)
 CRD 29=  -0.1090 ( 11)  0.1902 ( 12)  0.1486 ( 15)  0.2126 ( 16)  0.3765 ( 17)
          -0.6127 ( 20) -0.1035 ( 21) -0.2385 ( 22) -0.1178 ( 46) -0.2605 ( 56)
           0.2417 ( 63)  0.1099 ( 64)
 CRD 30=  -0.2562 ( 13) -0.1587 ( 15) -0.1115 ( 22)  0.1259 ( 44)  0.1259 ( 45)
           0.1160 ( 55) -0.1209 ( 68)  0.2244 ( 70)  0.1696 ( 74) -0.1888 ( 81)
           0.1189 ( 83) -0.2169 ( 85) -0.2280 ( 89)  0.2353 ( 93) -0.2359 ( 99)
           0.2338 (105) -0.1584 (106)  0.2298 (108)  0.1439 (112) -0.2388 (115)
          -0.1817 (116) -0.2105 (120)  0.1772 (123)  0.1244 (128)
 CRD 31=   0.1285 (  4) -0.1780 (  5) -0.1115 (  6)  0.1185 (  7)  0.2366 ( 11)
           0.1554 ( 12)  0.2484 ( 13) -0.2078 ( 14) -0.2902 ( 17)  0.2213 ( 18)
           0.2305 ( 19) -0.1186 ( 20) -0.2534 ( 21) -0.2423 ( 22)  0.1436 ( 25)
          -0.1227 ( 37) -0.1979 ( 49)  0.2208 ( 58) -0.1326 ( 60)  0.1477 ( 64)
          -0.1054 (112)  0.1085 (113)
 CRD 32=   0.2386 (  4) -0.1878 (  5) -0.4517 (  6)  0.1018 (  7)  0.2132 (  8)
          -0.1792 ( 10) -0.1003 ( 11)  0.1337 ( 12) -0.3444 ( 15)  0.1591 ( 16)
          -0.1471 ( 18)  0.1641 ( 19) -0.1460 ( 20)  0.2429 ( 22) -0.1010 ( 46)
           0.1333 ( 49)  0.1076 ( 60) -0.1186 ( 61) -0.1011 ( 91)  0.1193 (102)
           0.1326 (121) -0.1294 (124)
 CRD 33=  -0.2790 ( 12)  0.2607 ( 16) -0.1320 ( 18) -0.2836 ( 19)  0.2318 ( 21)
           0.2268 ( 22)  0.1286 ( 25) -0.1195 ( 37)  0.2030 ( 46) -0.1451 ( 49)
          -0.1216 ( 52) -0.2043 ( 56)  0.1310 ( 58) -0.1286 ( 60)  0.1287 ( 61)
          -0.2867 ( 62)  0.2879 ( 63)  0.1422 ( 64) -0.1132 ( 65) -0.1297 ( 77)
          -0.1157 ( 79) -0.1682 (121) -0.1317 (124)
 CRD 34=   0.3240 (  3)  0.1594 (  5) -0.1071 (  6) -0.3378 (  7) -0.1333 ( 10)
           0.1514 ( 11) -0.1049 ( 15) -0.1376 ( 17) -0.1092 ( 20) -0.3213 ( 25)
           0.3414 ( 37) -0.1389 ( 49)  0.1590 ( 58) -0.1160 ( 60)  0.1412 ( 64)
          -0.1615 ( 66)  0.1072 ( 67)  0.1388 ( 95)  0.1199 ( 97)  0.1584 (109)
           0.1362 (114) -0.1159 (120)  0.1068 (121) -0.1603 (123)
 CRD 35=   0.1101 (  5)  0.1068 ( 10) -0.1580 ( 12)  0.2627 ( 13) -0.2335 ( 14)
           0.2339 ( 15) -0.1259 ( 16)  0.2457 ( 17) -0.2298 ( 18)  0.3403 ( 19)
           0.2285 ( 20) -0.2422 ( 21)  0.3988 ( 22)  0.1045 ( 70) -0.1593 ( 89)
           0.1467 (105)
 CRD 36=   0.1328 (  3)  0.1537 (  4) -0.4592 (  6)  0.1136 (  7)  0.3244 ( 15)
          -0.1229 ( 16) -0.1319 ( 19)  0.1094 ( 20) -0.1784 ( 22) -0.1557 ( 26)
           0.1036 ( 37) -0.1042 ( 47)  0.1082 ( 59)  0.1094 ( 75) -0.1544 ( 77)
           0.1563 ( 79)  0.1039 ( 96) -0.1516 (100) -0.1501 (107)  0.1071 (118)
          -0.2146 (119) -0.1147 (121) -0.1012 (122)  0.1163 (124)  0.1508 (125)
 CRD 37=  -0.1406 (  3) -0.1627 (  8)  0.1249 ( 10) -0.1469 ( 15) -0.1399 ( 19)
           0.1629 ( 21)  0.1551 ( 27)  0.1175 ( 32)  0.1022 ( 46) -0.1498 ( 54)
          -0.1096 ( 55) -0.1322 ( 61) -0.1315 ( 87) -0.2124 ( 88) -0.1831 ( 89)
          -0.1477 ( 91) -0.1074 ( 97)  0.2364 (101)  0.2094 (105)  0.1046 (106)
          -0.1293 (116) -0.1020 (117)  0.3139 (120)  0.1146 (121) -0.1288 (122)
          -0.1880 (123) -0.1205 (127)  0.1834 (128)  0.1052 (129)
 CRD 38=  -0.1561 ( 11)  0.1662 ( 14)  0.2804 ( 18) -0.3016 ( 21)  0.2096 ( 22)
           0.1286 ( 27) -0.1070 ( 40) -0.1070 ( 41)  0.1001 ( 44)  0.1001 ( 45)
           0.1197 ( 47)  0.1371 ( 50) -0.1064 ( 54) -0.1034 ( 55) -0.1686 ( 60)
           0.2004 ( 64) -0.1275 ( 69) -0.1142 ( 70) -0.1400 ( 87) -0.1323 ( 91)
          -0.1122 ( 93) -0.1518 ( 99)  0.1367 (108)  0.1681 (110)  0.1862 (111)
           0.1554 (115)  0.1552 (117) -0.1350 (118) -0.1035 (121) -0.1357 (122)
          -0.1101 (126) -0.1077 (127)  0.1350 (129)
 CRD 39=   0.1561 (  7)  0.2203 ( 11) -0.1247 ( 13) -0.1456 ( 14)  0.1384 ( 16)
          -0.4204 ( 18)  0.1405 ( 19)  0.1489 ( 20)  0.1671 ( 21) -0.1032 ( 22)
          -0.1038 ( 31) -0.1096 ( 33)  0.1075 ( 44)  0.1075 ( 45) -0.1010 ( 47)
          -0.1270 ( 49) -0.1583 ( 56)  0.1558 ( 58)  0.1011 ( 60) -0.1847 ( 64)
           0.1072 ( 65) -0.1008 ( 68) -0.1486 ( 91) -0.1362 ( 93) -0.1344 (102)
           0.1104 (115)  0.1250 (117) -0.1652 (126) -0.2019 (127)
 CRD 40=  -0.1446 ( 12) -0.2121 ( 14)  0.2151 ( 15) -0.1322 ( 16)  0.1302 ( 18)
           0.1820 ( 19) -0.3708 ( 20)  0.3622 ( 21)  0.1219 ( 42) -0.1114 ( 49)
           0.1946 ( 57) -0.3021 ( 59)  0.2634 ( 60) -0.1966 ( 62) -0.2931 ( 63)
          -0.1005 ( 83)  0.1187 ( 97)
 CRD 41=  -0.1562 (  4) -0.1156 (  7)  0.1951 (  8) -0.1738 ( 10)  0.3366 ( 12)
          -0.1042 ( 13) -0.1239 ( 18)  0.1015 ( 20) -0.1795 ( 22)  0.1704 ( 33)
          -0.1101 ( 37) -0.1145 ( 49)  0.1406 ( 50) -0.1231 ( 52)  0.1131 ( 58)
           0.1331 ( 62) -0.1434 ( 64) -0.1739 ( 65) -0.1387 ( 74) -0.1912 ( 79)
          -0.1320 ( 83) -0.1091 ( 87)  0.2050 ( 96)  0.1237 ( 97) -0.1182 ( 99)
           0.1319 (100)  0.1697 (102)  0.1055 (106)  0.1073 (107)  0.1096 (108)
           0.1106 (111) -0.1311 (112)  0.1369 (113) -0.1074 (118) -0.1067 (123)
           0.1199 (129)
 CRD 42=   0.1203 (  4) -0.2177 (  5) -0.1351 (  8)  0.2515 ( 16) -0.1605 ( 17)
          -0.1037 ( 18) -0.1210 ( 21)  0.1243 ( 26) -0.1754 ( 32)  0.1029 ( 34)
           0.1190 ( 42) -0.1255 ( 53) -0.1020 ( 56)  0.1148 ( 63)  0.1675 ( 67)
           0.1417 ( 68)  0.1153 ( 77)  0.1500 ( 78)  0.1068 ( 81) -0.1199 ( 83)
          -0.1289 ( 89)  0.1442 ( 93) -0.1720 ( 95)  0.1006 ( 97)  0.1390 (105)
           0.1540 (106) -0.1296 (110) -0.1490 (112) -0.1469 (113) -0.1543 (116)
          -0.1015 (117)  0.1478 (122)  0.1659 (124) -0.1326 (126)  0.1094 (127)
           0.1454 (128)
 CRD 43=  -0.2062 (  3)  0.1640 (  4)  0.1012 (  6) -0.2049 (  7)  0.1027 (  8)
           0.1275 ( 10) -0.2006 ( 11)  0.1345 ( 13) -0.1158 ( 14)  0.2131 ( 16)
          -0.1333 ( 19) -0.1176 ( 22)  0.1703 ( 34) -0.1138 ( 47)  0.1187 ( 52)
          -0.1267 ( 57)  0.1016 ( 59) -0.1458 ( 61) -0.1976 ( 66) -0.1812 ( 67)
           0.1276 ( 77)  0.1023 ( 80)  0.1271 ( 88) -0.1335 ( 97) -0.1599 (100)
          -0.1594 (101)  0.1165 (106) -0.1766 (107) -0.1141 (112)  0.1849 (113)
          -0.1082 (118) -0.1594 (120)  0.1659 (121)  0.2045 (123) -0.1495 (124)
          -0.1067 (126)
 CRD 44=  -0.3440 (  3)  0.1588 (  5)  0.1994 (  7) -0.1777 ( 10)  0.1399 ( 11)
          -0.1373 ( 13) -0.1887 ( 14) -0.1130 ( 19) -0.1748 ( 21) -0.1110 ( 31)
           0.1562 ( 32) -0.1399 ( 37) -0.1155 ( 49) -0.1091 ( 51) -0.1109 ( 60)
          -0.1035 ( 61) -0.2065 ( 66)  0.1167 ( 67) -0.1019 ( 74) -0.1034 ( 78)
          -0.1927 ( 80)  0.1130 ( 85)  0.1151 ( 95)  0.1722 ( 97) -0.1153 ( 98)
          -0.1106 (100) -0.1653 (107) -0.1020 (110) -0.1250 (113)  0.1683 (121)
           0.1340 (124)
 CRD 45=   0.1583 (  5)  0.1517 (  7) -0.1347 (  8)  0.1302 ( 11) -0.1038 ( 15)
           0.1286 ( 17)  0.1274 ( 18)  0.1638 ( 25) -0.1148 ( 26) -0.1150 ( 33)
           0.1150 ( 35)  0.1150 ( 38)  0.1279 ( 53)  0.1310 ( 56)  0.1124 ( 58)
          -0.1297 ( 70) -0.1158 ( 71) -0.1516 ( 72)  0.1015 ( 73)  0.1458 ( 79)
           0.1150 ( 80)  0.1162 ( 84) -0.1389 ( 85)  0.1190 ( 87) -0.1229 ( 93)
           0.1082 ( 94)  0.1498 ( 95) -0.1249 ( 99)  0.1035 (106)  0.1536 (108)
          -0.1861 (112)  0.1535 (115) -0.1905 (116)  0.1444 (117) -0.1180 (120)
           0.1326 (122) -0.1106 (126)  0.1576 (127) -0.1678 (128)  0.1634 (129)
 CRD 46=  -0.2445 (  3)  0.1884 (  4)  0.2794 ( 14) -0.1340 ( 16) -0.1450 ( 17)
           0.1401 ( 19) -0.1080 ( 24)  0.1247 ( 28)  0.1479 ( 34) -0.1072 ( 52)
          -0.1220 ( 56)  0.1550 ( 57)  0.2183 ( 61) -0.2287 ( 66) -0.1642 ( 70)
           0.1827 ( 78)  0.1063 ( 87)  0.1004 ( 98) -0.1810 (100) -0.1106 (106)
           0.2255 (109) -0.1341 (116) -0.3086 (119)  0.1147 (122)  0.1353 (126)
 CRD 47=  -0.1020 (  5) -0.1032 (  7) -0.2019 ( 14)  0.1268 ( 15)  0.1398 ( 16)
          -0.1376 ( 23) -0.1146 ( 32)  0.1497 ( 52) -0.1008 ( 61)  0.1164 ( 69)
           0.1328 ( 72)  0.1878 ( 77) -0.1571 ( 84) -0.1380 ( 85)  0.1600 ( 86)
          -0.1772 ( 90) -0.1010 ( 95)  0.1758 ( 98) -0.1222 ( 99) -0.1348 (103)
          -0.1313 (105) -0.1531 (106)  0.1128 (108) -0.1012 (109)  0.1010 (110)
           0.1777 (115) -0.1970 (116)  0.2611 (117)  0.1521 (118) -0.1112 (123)
           0.1549 (126) -0.1090 (127) -0.2223 (128)
 CRD 48=   0.1978 (  4) -0.2181 (  5) -0.1016 ( 15) -0.2547 ( 16)  0.2482 ( 17)
          -0.1494 ( 25)  0.1198 ( 26) -0.1022 ( 27) -0.1461 ( 32)  0.1524 ( 34)
          -0.1488 ( 42) -0.1889 ( 52)  0.1773 ( 53)  0.1087 ( 54) -0.1179 ( 55)
           0.1684 ( 58) -0.1783 ( 68)  0.1204 ( 70) -0.1239 ( 72)  0.2766 ( 76)
          -0.1267 ( 82) -0.1202 ( 94) -0.1917 (101) -0.1845 (107) -0.1756 (109)
          -0.1422 (119) -0.1333 (121) -0.1216 (125)
 CRD 49=   0.1985 (  7) -0.1358 (  8) -0.2749 ( 11)  0.1837 ( 12) -0.1129 ( 33)
          -0.1280 ( 35)  0.1061 ( 36) -0.1280 ( 38)  0.1061 ( 39)  0.1684 ( 44)
           0.1684 ( 45)  0.1645 ( 50) -0.1344 ( 65)  0.1128 ( 68)  0.1056 ( 69)
          -0.1549 ( 79)  0.1260 ( 80) -0.1077 ( 81) -0.1204 ( 83) -0.1004 ( 86)
          -0.1452 ( 88)  0.1114 ( 93)  0.1248 ( 97)  0.1075 (101)  0.1207 (110)
           0.1662 (114)  0.1277 (116)  0.1957 (118) -0.1147 (124) -0.3384 (125)
           0.1777 (127) -0.1292 (129)
 CRD 50=   0.1421 ( 10)  0.1284 ( 12) -0.2516 ( 16) -0.1352 ( 23) -0.1077 ( 25)
          -0.1120 ( 36)  0.1433 ( 37) -0.1120 ( 39) -0.1120 ( 56)  0.1919 ( 68)
           0.1045 ( 70) -0.1209 ( 78) -0.1294 ( 80)  0.1143 ( 81) -0.1962 ( 83)
           0.1926 ( 86) -0.1909 ( 90) -0.1327 ( 92)  0.1301 ( 93) -0.1032 ( 97)
          -0.1319 ( 99)  0.1607 (103)  0.1880 (104) -0.1648 (111) -0.2151 (114)
          -0.1122 (116)  0.1774 (117) -0.1043 (118) -0.1565 (126)  0.2072 (127)
          -0.2253 (129)
 CRD 51=   0.1225 (  7) -0.1562 ( 10)  0.2153 ( 13) -0.1465 ( 16) -0.1564 ( 23)
          -0.1332 ( 29) -0.1332 ( 30) -0.1146 ( 40) -0.1146 ( 41)  0.1206 ( 43)
           0.1530 ( 46) -0.1297 ( 47)  0.1206 ( 48)  0.1208 ( 67) -0.1769 ( 74)
          -0.2541 ( 75) -0.1044 ( 76) -0.1099 ( 78) -0.1160 ( 79)  0.1445 ( 81)
           0.1087 ( 82)  0.1541 ( 83)  0.1048 ( 84) -0.2151 ( 85)  0.2203 ( 88)
          -0.1111 ( 90) -0.1751 ( 96)  0.1611 ( 98)  0.2205 (114) -0.1811 (118)
           0.1085 (122)  0.1536 (124)
 CRD 52=   0.1092 (  8) -0.1149 ( 10) -0.2621 ( 12)  0.1038 ( 16)  0.1064 ( 23)
          -0.1251 ( 37) -0.1031 ( 44) -0.1031 ( 45) -0.1089 ( 46)  0.1341 ( 71)
          -0.1851 ( 73)  0.1527 ( 76)  0.1324 ( 78) -0.1184 ( 81) -0.1539 ( 82)
          -0.1066 ( 85) -0.2339 ( 90)  0.1016 ( 93) -0.1796 ( 94)  0.1207 ( 98)
           0.2708 (104)  0.1023 (106)  0.1120 (110)  0.1238 (113)  0.1119 (114)
           0.2096 (117)  0.1092 (118)  0.1104 (125)  0.1846 (128) -0.3177 (129)
 CRD 53=   0.1116 (  8) -0.1376 ( 16) -0.1179 ( 25) -0.1374 ( 31) -0.1076 ( 36)
          -0.1076 ( 39)  0.2589 ( 71) -0.1128 ( 72)  0.1197 ( 73)  0.1629 ( 74)
          -0.2028 ( 75) -0.1619 ( 80) -0.2062 ( 81) -0.1645 ( 82)  0.1925 ( 84)
           0.1193 ( 90) -0.1516 ( 92)  0.1703 ( 94)  0.1290 (101)  0.1180 (103)
          -0.1665 (104)  0.2441 (118) -0.2350 (122) -0.1448 (123)  0.1262 (125)
          -0.1502 (126)  0.1784 (127) -0.1564 (128)  0.1720 (129)
 CRD 54=  -0.2711 ( 12) -0.3246 ( 23) -0.3388 ( 35) -0.3388 ( 38) -0.1471 ( 46)
           0.1321 ( 51)  0.1113 ( 53) -0.1216 ( 55)  0.1138 ( 62)  0.1917 ( 68)
          -0.1963 ( 83) -0.1008 ( 84) -0.2363 ( 92)  0.1415 ( 94)  0.1760 (103)
          -0.1204 (106)  0.1096 (127) -0.1041 (128)  0.1407 (129)

 THE DETERMINANT OF THE G MATRIX IS 10**(   -19)


                     --------------------
                     INTERNAL COORDINATES
                     --------------------

                 - - ATOMS - -         COORDINATE      COORDINATE
 NO.   TYPE    I  J  K  L  M  N        (BOHR,RAD)       (ANG,DEG)
 ----------------------------------------------------------------
   1 STRETCH   1  6                     3.7844110       2.0026242
   2 STRETCH   3  4                     2.9526329       1.5624662
   3 STRETCH   1  2                     2.5688398       1.3593716
   4 STRETCH   1 12                     2.0707641       1.0958012
   5 STRETCH   1 11                     2.0647408       1.0926138
   6 STRETCH   2 13                     2.0560677       1.0880243
   7 STRETCH   2  3                     2.8793675       1.5236958
   8 STRETCH   3 14                     2.0719755       1.0964423
   9 STRETCH   3  4                     2.9526329       1.5624662
  10 STRETCH   3 15                     2.0734374       1.0972159
  11 STRETCH   4  5                     2.8746763       1.5212133
  12 STRETCH   4  9                     2.8912747       1.5299968
  13 STRETCH   4 16                     2.0712761       1.0960722
  14 STRETCH   5  6                     2.5746171       1.3624288
  15 STRETCH   5 17                     2.0529918       1.0863966
  16 STRETCH   6  7                     2.8002643       1.4818362
  17 STRETCH   6 18                     2.0700104       1.0954024
  18 STRETCH   7  8                     2.5332694       1.3405485
  19 STRETCH   7 19                     2.0533715       1.0865975
  20 STRETCH   8 20                     2.0436858       1.0814720
  21 STRETCH   8  9                     2.8104042       1.4872020
  22 STRETCH   9 10                     2.3255325       1.2306189
  23 BEND      1  6  7                  1.8504155     106.0209978
  24 BEND      1  6  5                  1.7608537     100.8894839
  25 BEND      1  2 13                  2.0870726     119.5804532
  26 BEND      1  2  3                  2.0865029     119.5478093
  27 BEND      1  6 18                  1.7145801      98.2382022
  28 BEND      2  1  6                  1.8542139     106.2386308
  29 BEND      2  3  4                  1.9485854     111.6457195
  30 BEND      2  3  4                  1.9485854     111.6457195
  31 BEND      2  3 14                  1.9185126     109.9226728
  32 BEND      2  1 12                  2.0303380     116.3298008
  33 BEND      2  3 15                  1.8792816     107.6749017
  34 BEND      2  1 11                  2.0621416     118.1520091
  35 BEND      3  4  9                  1.9107622     109.4786123
  36 BEND      3  4  5                  1.9089736     109.3761321
  37 BEND      3  2 13                  2.0402715     116.8989435
  38 BEND      3  4  9                  1.9107622     109.4786123
  39 BEND      3  4  5                  1.9089736     109.3761321
  40 BEND      3  4 16                  1.9400216     111.1550493
  41 BEND      3  4 16                  1.9400216     111.1550493
  42 BEND      4  5  6                  2.0110694     115.2257888
  43 BEND      4  3 15                  1.8893645     108.2526146
  44 BEND      4  3 14                  1.9638934     112.5228060
  45 BEND      4  3 14                  1.9638934     112.5228060
  46 BEND      4  9 10                  2.1353545     122.3468020
  47 BEND      4  9  8                  2.0677411     118.4728355
  48 BEND      4  3 15                  1.8893645     108.2526146
  49 BEND      4  5 17                  2.0633865     118.2233387
  50 BEND      5  4 16                  1.9068932     109.2569319
  51 BEND      5  4  9                  1.9237373     110.2220302
  52 BEND      5  6 18                  2.0700054     118.6025755
  53 BEND      5  6  7                  1.9961943     114.3735087
  54 BEND      6  1 11                  1.8586516     106.4928941
  55 BEND      6  1 12                  1.5279859      87.5471423
  56 BEND      6  7 19                  2.0386242     116.8045647
  57 BEND      6  7  8                  2.1398913     122.6067383
  58 BEND      6  5 17                  2.1017332     120.4204408
  59 BEND      7  8  9                  2.0754007     118.9116996
  60 BEND      7  8 20                  2.1563511     123.5498156
  61 BEND      7  6 18                  2.0081882     115.0607080
  62 BEND      8  9 10                  2.0790933     119.1232692
  63 BEND      8  7 19                  2.1044248     120.5746580
  64 BEND      9  8 20                  2.0514284     117.5381898
  65 BEND      9  4 16                  1.8732971     107.3320180
  66 BEND     11  1 12                  2.0256483     116.0610962
  67 BEND     14  3 15                  1.8598400     106.5609829
  68 TORSION   1  6  5 17               1.5589288      89.3200414
  69 TORSION   1  2  3 15              -2.9475757    -168.8836482
  70 TORSION   1  6  7 19              -1.6845410     -96.5170912
  71 TORSION   1  2  3  4              -0.8759831     -50.1901357
  72 TORSION   1  6  5  4              -1.0937556     -62.6675818
  73 TORSION   1  6  7  8               1.4807400      84.8401553
  74 TORSION   1  2  3 14               1.3162226      75.4139990
  75 TORSION   2  3  4  5              -0.1790955     -10.2614138
  76 TORSION   2  1  6  5               0.0616227       3.5307200
  77 TORSION   2  1  6 18               2.1797923     124.8928964
  78 TORSION   2  1  6  7              -2.0241021    -115.9725104
  79 TORSION   2  3  4 16              -2.2861965    -130.9894083
  80 TORSION   2  3  4  9               1.9304328     110.6056529
  81 TORSION   3  2  1 12              -0.7677557     -43.9891589
  82 TORSION   3  2  1  6               0.8975833      51.4277331
  83 TORSION   3  4  5 17              -1.4147787     -81.0608482
  84 TORSION   3  4  5  6               1.2492094      71.5744290
  85 TORSION   3  4  9 10               1.3810042      79.1257132
  86 TORSION   3  4  9  8              -1.7121723     -98.1002480
  87 TORSION   3  2  1 11               2.9818747     170.8488351
  88 TORSION   4  3  2 13               1.8728747     107.3078184
  89 TORSION   4  9  8 20              -3.1361554    -179.6884657
  90 TORSION   4  9  8  7               0.0087629       0.5020778
  91 TORSION   4  5  6 18              -2.9390864    -168.3972440
  92 TORSION   4  5  6  7               0.8838814      50.6426763
  93 TORSION   5  6  7 19               2.6746779     153.2477547
  94 TORSION   5  6  7  8              -0.4432263     -25.3949989
  95 TORSION   5  6  1 12               2.0990887     120.2689235
  96 TORSION   5  4  3 15               1.8864815     108.0874253
  97 TORSION   5  4  3 14              -2.3460175    -134.4169006
  98 TORSION   5  4  9  8               0.3883722      22.2520851
  99 TORSION   5  4  9 10              -2.8016366    -160.5219537
 100 TORSION   5  6  1 11              -2.1511002    -123.2489654
 101 TORSION   6  1  2 13              -1.8407039    -105.4645651
 102 TORSION   6  5  4 16              -2.9068220    -166.5486318
 103 TORSION   6  5  4  9              -0.8524110     -48.8395516
 104 TORSION   6  7  8  9              -0.0127752      -0.7319635
 105 TORSION   6  7  8 20               3.1323558     179.4707655
 106 TORSION   7  6  5 17              -2.7466194    -157.3697005
 107 TORSION   7  6  1 11               2.0463602     117.2478042
 108 TORSION   7  8  9 10              -3.0860082    -176.8152456
 109 TORSION   7  6  1 12               0.0133639       0.7656931
 110 TORSION   8  9  4 16               2.4634127     141.1431512
 111 TORSION   8  7  6 18              -2.9281731    -167.7719626
 112 TORSION   9  4  5 17               2.7667862     158.5251712
 113 TORSION   9  4  3 15              -2.2871756    -131.0455080
 114 TORSION   9  4  3 14              -0.2364892     -13.5498339
 115 TORSION   9  8  7 19              -3.1298103    -179.3249194
 116 TORSION  10  9  4 16              -0.7265961     -41.6308877
 117 TORSION  10  9  8 20               0.0522588       2.9942109
 118 TORSION  11  1  2 13               0.2435875      13.9565369
 119 TORSION  11  1  6 18              -0.0329307      -1.8867890
 120 TORSION  12  1  2 13               2.7771425     159.1185429
 121 TORSION  12  1  6 18              -2.0659270    -118.3689000
 122 TORSION  13  2  3 15              -0.1987179     -11.3856941
 123 TORSION  13  2  3 14              -2.2181049    -127.0880469
 124 TORSION  14  3  4 16               1.8300668     104.8551049
 125 TORSION  15  3  4 16              -0.2206196     -12.6405693
 126 TORSION  16  4  5 17               0.7123752      40.8160910
 127 TORSION  17  5  6 18              -0.2864019     -16.4096208
 128 TORSION  18  6  7 19               0.1897311      10.8707909
 129 TORSION  19  7  8 20               0.0153207       0.8778096

     ------------------------------------------
     THE POINT GROUP IS C1 , NAXIS= 0, ORDER= 1
     ------------------------------------------

     DIMENSIONS OF THE SYMMETRY SUBSPACES ARE
 A   =   60

 ..... DONE SETTING UP THE RUN .....
 STEP CPU TIME =     0.05 TOTAL CPU TIME =          0.0 (      0.0 MIN)
 TOTAL WALL CLOCK TIME=          0.1 SECONDS, CPU UTILIZATION IS    55.56%


          -----------------------------
          STATIONARY POINT LOCATION RUN
          -----------------------------


           ** GEOMETRY CONSTRAINTS ARE BEING APPLIED. **

          TRANSFORMING DISPLACEMENT FROM INTERNALS TO CARTESIANS
          THE ROOT MEAN SQUARE ERROR IN ITERATION   1 IS   0.01135353
          THE ROOT MEAN SQUARE ERROR IN ITERATION   2 IS   0.00005243
          THE ROOT MEAN SQUARE ERROR IN ITERATION   3 IS   0.00000000
 WARNING! THE RADIUS IN CARTESIANS IS    1.29405
 OBTAINING INITIAL HESSIAN, HESS=CALC    

     ---------------------------------
     HESSIAN MATRIX CONTROL PARAMETERS
     ---------------------------------
     METHOD=ANALYTIC   NVIB  =       2   VIBSIZ= 0.01000
     RDHESS=       F   PURIFY=       F   PRTIFC=       F
     VIBANL=       F   DECOMP=       F   PROJCT=       F
     SCLFAC= 1.00000   PRTSCN=       F   NPRT  =       0
     PULCOR=       F   NPUN  =       0   REDOVB=       T
     HSSTYP=GENERAL 
 Old integral subroutine is used

     ------------------------------
     CPHF RESPONSE SOLUTION OPTIONS
     ------------------------------
     POLAR  =       F     NWORD  =       0
     CPHF   =AO      

          ********************
          1 ELECTRON INTEGRALS
          ********************
 ...... END OF ONE-ELECTRON INTEGRALS ......
 STEP CPU TIME =     0.05 TOTAL CPU TIME =          0.1 (      0.0 MIN)
 TOTAL WALL CLOCK TIME=          0.1 SECONDS, CPU UTILIZATION IS    76.92%

          -------------
          GUESS OPTIONS
          -------------
          GUESS =HUCKEL            NORB  =       0          NORDER=       0
          MIX   =       F          PRTMO =       F          PUNMO =       F
          TOLZ  = 1.0E-08          TOLE  = 1.0E-05
          SYMDEN=       F          PURIFY=       F

 INITIAL GUESS ORBITALS GENERATED BY HUCKEL   ROUTINE.
 HUCKEL GUESS REQUIRES     53820 WORDS.

 SYMMETRIES FOR INITIAL GUESS ORBITALS FOLLOW.   BOTH SET(S).
    36 ORBITALS ARE OCCUPIED (   10 CORE ORBITALS).
    11=A       12=A       13=A       14=A       15=A       16=A       17=A   
    18=A       19=A       20=A       21=A       22=A       23=A       24=A   
    25=A       26=A       27=A       28=A       29=A       30=A       31=A   
    32=A       33=A       34=A       35=A       36=A       37=A       38=A   
    39=A       40=A       41=A       42=A       43=A       44=A       45=A   
    46=A   
 ...... END OF INITIAL ORBITAL SELECTION ......
 STEP CPU TIME =     0.01 TOTAL CPU TIME =          0.1 (      0.0 MIN)
 TOTAL WALL CLOCK TIME=          0.1 SECONDS, CPU UTILIZATION IS    78.57%

                    ----------------------
                    AO INTEGRAL TECHNOLOGY
                    ----------------------
     S,P,L SHELL ROTATED AXIS INTEGRALS, REPROGRAMMED BY
        KAZUYA ISHIMURA (IMS) AND JOSE SIERRA (SYNSTAR).
     S,P,D,L SHELL ROTATED AXIS INTEGRALS PROGRAMMED BY
        KAZUYA ISHIMURA (INSTITUTE FOR MOLECULAR SCIENCE).
     S,P,D,F,G SHELL TO TOTAL QUARTET ANGULAR MOMENTUM SUM 5,
        ERIC PROGRAM BY GRAHAM FLETCHER (ELORET AND NASA ADVANCED
        SUPERCOMPUTING DIVISION, AMES RESEARCH CENTER).
     S,P,D,F,G,L SHELL GENERAL RYS QUADRATURE PROGRAMMED BY
        MICHEL DUPUIS (PACIFIC NORTHWEST NATIONAL LABORATORY).

          --------------------
          2 ELECTRON INTEGRALS
          --------------------

 THE -PK- OPTION IS OFF, THE INTEGRALS ARE NOT IN SUPERMATRIX FORM.
 STORING   15000 INTEGRALS/RECORD ON DISK, USING 12 BYTES/INTEGRAL.
 TWO ELECTRON INTEGRAL EVALUATION REQUIRES   89821 WORDS OF MEMORY.
 SCHWARZ INEQUALITY OVERHEAD:      1797 INTEGRALS, T=        0.00
 II,JST,KST,LST =  1  1  1  1 NREC =         1 INTLOC =    1
 II,JST,KST,LST =  2  1  1  1 NREC =         1 INTLOC =    2
 II,JST,KST,LST =  3  1  1  1 NREC =         1 INTLOC =   34
 II,JST,KST,LST =  4  1  1  1 NREC =         1 INTLOC =  144
 II,JST,KST,LST =  5  1  1  1 NREC =         1 INTLOC = 1366
 II,JST,KST,LST =  6  1  1  1 NREC =         1 INTLOC = 1951
 II,JST,KST,LST =  7  1  1  1 NREC =         1 INTLOC = 6853
 II,JST,KST,LST =  8  1  1  1 NREC =         1 INTLOC = 8460
 II,JST,KST,LST =  9  1  1  1 NREC =         2 INTLOC = 5838
 II,JST,KST,LST = 10  1  1  1 NREC =         2 INTLOC = 9547
 II,JST,KST,LST = 11  1  1  1 NREC =         4 INTLOC = 4856
 II,JST,KST,LST = 12  1  1  1 NREC =         4 INTLOC =11920
 II,JST,KST,LST = 13  1  1  1 NREC =         7 INTLOC =11876
 II,JST,KST,LST = 14  1  1  1 NREC =         8 INTLOC = 7933
 II,JST,KST,LST = 15  1  1  1 NREC =        13 INTLOC = 4583
 II,JST,KST,LST = 16  1  1  1 NREC =        14 INTLOC = 6208
 II,JST,KST,LST = 17  1  1  1 NREC =        21 INTLOC = 8538
 II,JST,KST,LST = 18  1  1  1 NREC =        23 INTLOC = 4256
 II,JST,KST,LST = 19  1  1  1 NREC =        33 INTLOC =11200
 II,JST,KST,LST = 20  1  1  1 NREC =        35 INTLOC = 6811
 II,JST,KST,LST = 21  1  1  1 NREC =        47 INTLOC = 9297
 II,JST,KST,LST = 22  1  1  1 NREC =        51 INTLOC = 4806
 II,JST,KST,LST = 23  1  1  1 NREC =        55 INTLOC = 9514
 II,JST,KST,LST = 24  1  1  1 NREC =        59 INTLOC =11539
 II,JST,KST,LST = 25  1  1  1 NREC =        64 INTLOC = 9037
 II,JST,KST,LST = 26  1  1  1 NREC =        69 INTLOC = 7561
 II,JST,KST,LST = 27  1  1  1 NREC =        74 INTLOC =13831
 II,JST,KST,LST = 28  1  1  1 NREC =        80 INTLOC = 8487
 II,JST,KST,LST = 29  1  1  1 NREC =        86 INTLOC = 5990
 II,JST,KST,LST = 30  1  1  1 NREC =        92 INTLOC = 7005
 SCHWARZ INEQUALITY TEST SKIPPED       25954 INTEGRAL BLOCKS.
 TOTAL NUMBER OF NONZERO TWO-ELECTRON INTEGRALS =             1467392
         98 INTEGRAL RECORDS WERE STORED ON DISK FILE  8.
  ...... END OF TWO-ELECTRON INTEGRALS .....
 STEP CPU TIME =     0.33 TOTAL CPU TIME =          0.4 (      0.0 MIN)
 TOTAL WALL CLOCK TIME=          0.5 SECONDS, CPU UTILIZATION IS    91.67%

          --------------------------
                 RHF SCF CALCULATION
          --------------------------

     NUCLEAR ENERGY =       502.3625610234
     MAXIT =   30     NPUNCH=    2
     EXTRAP=T  DAMP=F  SHIFT=F  RSTRCT=F  DIIS=F  DEM=F  SOSCF=T
     DENSITY MATRIX CONV=  1.00E-05
     SOSCF WILL OPTIMIZE     864 ORBITAL ROTATIONS, SOGTOL=   0.250
     MEMORY REQUIRED FOR RHF ITERS=     59496 WORDS.

 ITER EX DEM     TOTAL ENERGY        E CHANGE  DENSITY CHANGE     ORB. GRAD
   1  0  0     -415.4674274645  -415.4674274645   0.519097436   0.000000000
          ---------------START SECOND ORDER SCF---------------
   2  1  0     -415.9841674433    -0.5167399788   0.243928482   0.063433676
   3  2  0     -416.0173165966    -0.0331491533   0.121041421   0.048736428
   4  3  0     -416.0516133964    -0.0342967998   0.018699409   0.006548606
   5  4  0     -416.0525936093    -0.0009802129   0.006193335   0.003229371
   6  5  0     -416.0527375011    -0.0001438918   0.001844923   0.000858393
   7  6  0     -416.0527573242    -0.0000198230   0.001310085   0.000253345
   8  7  0     -416.0527594879    -0.0000021638   0.000372372   0.000096084
   9  8  0     -416.0527599221    -0.0000004342   0.000134199   0.000031298
  10  9  0     -416.0527599762    -0.0000000540   0.000061402   0.000017292
  11 10  0     -416.0527599839    -0.0000000077   0.000021860   0.000004109
  12 11  0     -416.0527599849    -0.0000000011   0.000008662   0.000001556
  13 12  0     -416.0527599851    -0.0000000002   0.000005785   0.000000634

          -----------------
          DENSITY CONVERGED
          -----------------
     TIME TO FORM FOCK OPERATORS=       0.3 SECONDS (       0.0 SEC/ITER)
     TIME TO SOLVE SCF EQUATIONS=       0.0 SECONDS (       0.0 SEC/ITER)

 FINAL RHF ENERGY IS     -416.0527599851 AFTER  13 ITERATIONS

          ------------
          EIGENVECTORS
          ------------

                      1          2          3          4          5
                  -20.2583   -11.1100   -11.0556   -11.0528   -11.0504
                     A          A          A          A          A   
    1  C  1  S   -0.000000   0.000038  -0.014572  -0.000703  -0.002123
    2  C  1  S    0.000001   0.000030  -0.003199  -0.000100   0.000051
    3  C  1  X    0.000000   0.000018  -0.001919  -0.000022   0.000021
    4  C  1  Y   -0.000002   0.000020   0.000171  -0.000042   0.000008
    5  C  1  Z    0.000001  -0.000007  -0.001683  -0.000128  -0.000061
    6  C  2  S   -0.000000   0.000011  -0.000186  -0.000167  -0.001435
    7  C  2  S    0.000001   0.000003   0.000256   0.000722  -0.005861
    8  C  2  X   -0.000003   0.000025   0.000218  -0.000071   0.001045
    9  C  2  Y   -0.000005   0.000022   0.000009   0.000288  -0.002491
   10  C  2  Z    0.000003  -0.000013   0.000054   0.000402  -0.003298
   11  C  3  S   -0.000004  -0.000258   0.000415  -0.101659   0.987118
   12  C  3  S    0.000012   0.000078   0.000048  -0.006011   0.034314
   13  C  3  X    0.000022  -0.000130  -0.000003  -0.001695  -0.002432
   14  C  3  Y    0.000027  -0.000080   0.000015   0.000088  -0.000157
   15  C  3  Z   -0.000001  -0.000006   0.000032  -0.001265  -0.001806
   16  C  4  S   -0.000022  -0.002067  -0.015125   0.986860   0.102463
   17  C  4  S    0.000248  -0.005440  -0.000511   0.034716   0.001139
   18  C  4  X   -0.000174  -0.001747  -0.000096   0.002189   0.002145
   19  C  4  Y    0.000271  -0.003663  -0.000074   0.000007  -0.000074
   20  C  4  Z    0.000291   0.000053   0.000246   0.001381   0.001607
   21  C  5  S    0.000005  -0.000360   0.006939  -0.001864  -0.000705
   22  C  5  S    0.000006   0.000044  -0.007142  -0.006012  -0.000555
   23  C  5  X   -0.000058  -0.000090  -0.002181   0.002438   0.000199
   24  C  5  Y   -0.000061  -0.000088  -0.000771  -0.003138  -0.000281
   25  C  5  Z    0.000015  -0.000008   0.004083  -0.001476  -0.000156
   26  C  6  S    0.000003  -0.000316   0.991705   0.015102   0.001111
   27  C  6  S    0.000017  -0.000035   0.036747   0.000701   0.000071
   28  C  6  X    0.000024   0.000025   0.000746   0.000096   0.000027
   29  C  6  Y   -0.000024  -0.000102   0.000073  -0.000069  -0.000027
   30  C  6  Z   -0.000014  -0.000045   0.002003   0.000031   0.000011
   31  C  7  S    0.000008  -0.000438  -0.014243  -0.005502  -0.000391
   32  C  7  S    0.000013   0.000115  -0.006825  -0.000362  -0.000018
   33  C  7  X    0.000063   0.000004   0.001999   0.000172   0.000007
   34  C  7  Y    0.000053  -0.000010   0.003966   0.000033   0.000002
   35  C  7  Z   -0.000033  -0.000008  -0.000245  -0.000093  -0.000011
   36  C  8  S   -0.000026  -0.000779  -0.000704  -0.000824  -0.000004
   37  C  8  S    0.000381  -0.006082   0.000286   0.000179   0.000033
   38  C  8  X   -0.000102   0.003254  -0.000048   0.000011  -0.000017
   39  C  8  Y    0.000413   0.000295  -0.000171  -0.000085  -0.000003
   40  C  8  Z    0.000236  -0.002734   0.000028  -0.000015   0.000001
   41  C  9  S    0.000556   0.992512   0.000297   0.003008   0.000598
   42  C  9  S   -0.007111   0.033145   0.000056  -0.005806  -0.000553
   43  C  9  X    0.001931   0.000102  -0.000094   0.001904   0.000149
   44  C  9  Y   -0.004959   0.000636   0.000009   0.003838   0.000350
   45  C  9  Z   -0.003354  -0.000128   0.000129  -0.000237  -0.000037
   46  O 10  S    0.994280   0.000186   0.000006  -0.000019  -0.000008
   47  O 10  S    0.025859  -0.005834  -0.000054   0.000227   0.000054
   48  O 10  X    0.001711  -0.000574  -0.000008  -0.000075  -0.000012
   49  O 10  Y   -0.004319   0.001410   0.000035  -0.000202  -0.000044
   50  O 10  Z   -0.002958   0.001001   0.000009   0.000026  -0.000006
   51  H 11  S   -0.000001  -0.000004   0.000291  -0.000016  -0.000072
   52  H 12  S    0.000002  -0.000067   0.000030  -0.000004  -0.000118
   53  H 13  S   -0.000001   0.000005  -0.000001  -0.000017   0.000128
   54  H 14  S    0.000009  -0.000252  -0.000004   0.000737  -0.006854
   55  H 15  S    0.000004  -0.000051  -0.000012   0.000743  -0.006856
   56  H 16  S   -0.000108  -0.000166  -0.000035  -0.006912  -0.000682
   57  H 17  S   -0.000025  -0.000068   0.000084   0.000081   0.000001
   58  H 18  S   -0.000016  -0.000036  -0.006824  -0.000204  -0.000024
   59  H 19  S   -0.000024  -0.000064   0.000195  -0.000012  -0.000002
   60  H 20  S   -0.000217   0.000025  -0.000027  -0.000050  -0.000006

                      6          7          8          9         10
                  -11.0486   -11.0361   -11.0259   -11.0188   -11.0055
                     A          A          A          A          A   
    1  C  1  S    0.000433   0.992030  -0.000620   0.002184  -0.006714
    2  C  1  S    0.000412   0.036187   0.000055   0.000138  -0.007615
    3  C  1  X   -0.000028  -0.001696   0.000028   0.000024   0.004084
    4  C  1  Y    0.000208   0.000332   0.000058   0.000056   0.000584
    5  C  1  Z   -0.000124  -0.000382  -0.000026  -0.000208  -0.002197
    6  C  2  S    0.000026   0.007441   0.000031  -0.006567   0.992185
    7  C  2  S   -0.000022  -0.007073   0.000012  -0.000549   0.035712
    8  C  2  X   -0.000010  -0.004032   0.000007  -0.000337   0.002081
    9  C  2  Y    0.000017  -0.000472  -0.000006   0.000124  -0.000641
   10  C  2  Z    0.000024   0.002151  -0.000000  -0.000360   0.000586
   11  C  3  S   -0.000174   0.002120  -0.000088   0.000518   0.002336
   12  C  3  S   -0.000015   0.000161   0.000010   0.000153  -0.005693
   13  C  3  X    0.000004  -0.000140   0.000006  -0.000056  -0.001040
   14  C  3  Y    0.000007  -0.000062   0.000009   0.000070   0.002603
   15  C  3  Z   -0.000014   0.000029  -0.000001  -0.000034   0.003234
   16  C  4  S    0.005342   0.000710   0.000734   0.002985   0.000344
   17  C  4  S    0.000193   0.000021   0.000231  -0.005663   0.000068
   18  C  4  X   -0.000067   0.000022   0.000062  -0.002423  -0.000017
   19  C  4  Y   -0.000046  -0.000024   0.000010   0.003101   0.000057
   20  C  4  Z    0.000106   0.000111   0.000017   0.001580   0.000080
   21  C  5  S   -0.001676  -0.001967  -0.004746   0.992169   0.006745
   22  C  5  S   -0.000120  -0.000081  -0.000307   0.035739  -0.000112
   23  C  5  X   -0.000129   0.000080  -0.000076  -0.000940   0.000379
   24  C  5  Y   -0.000224   0.000011  -0.000207   0.000221   0.000004
   25  C  5  Z   -0.000029   0.000014   0.000030  -0.002532   0.000313
   26  C  6  S    0.015315   0.015473   0.000505  -0.006167   0.000029
   27  C  6  S   -0.005424  -0.002084   0.000413  -0.007704   0.000150
   28  C  6  X   -0.001934   0.002024   0.000102   0.002082  -0.000027
   29  C  6  Y   -0.003747  -0.000065   0.000099   0.001089   0.000009
   30  C  6  Z   -0.000016   0.001548   0.000023  -0.004056  -0.000059
   31  C  7  S    0.991979  -0.000707  -0.015876   0.001811  -0.000014
   32  C  7  S    0.035800   0.000119  -0.008455   0.000080  -0.000013
   33  C  7  X   -0.000410  -0.000180   0.001227   0.000075  -0.000016
   34  C  7  Y    0.000865   0.000030  -0.003569  -0.000005   0.000024
   35  C  7  Z    0.000785  -0.000176  -0.002708  -0.000301   0.000002
   36  C  8  S    0.016466   0.000572   0.992022   0.004839  -0.000004
   37  C  8  S   -0.007133   0.000056   0.036482   0.000136  -0.000011
   38  C  8  X   -0.001174  -0.000015  -0.000013   0.000040  -0.000001
   39  C  8  Y    0.003485  -0.000012  -0.001470   0.000164   0.000003
   40  C  8  Z    0.002594  -0.000020  -0.000674  -0.000097  -0.000002
   41  C  9  S    0.000547  -0.000039   0.001757   0.000454  -0.000010
   42  C  9  S    0.000072   0.000010  -0.006301   0.000040  -0.000009
   43  C  9  X   -0.000016  -0.000014  -0.003290  -0.000132   0.000001
   44  C  9  Y    0.000218  -0.000009  -0.000515   0.000121   0.000007
   45  C  9  Z    0.000105  -0.000016   0.002719   0.000012  -0.000033
   46  O 10  S    0.000015   0.000000  -0.000019   0.000009  -0.000000
   47  O 10  S   -0.000132   0.000000   0.000310  -0.000083   0.000004
   48  O 10  X   -0.000041   0.000001   0.000129   0.000018   0.000004
   49  O 10  Y    0.000043   0.000001  -0.000073   0.000038  -0.000002
   50  O 10  Z    0.000045  -0.000000  -0.000135   0.000032   0.000001
   51  H 11  S   -0.000026  -0.006841  -0.000002  -0.000049   0.000129
   52  H 12  S   -0.001043  -0.006798  -0.000160  -0.000032   0.000011
   53  H 13  S    0.000005   0.000056  -0.000002   0.000063  -0.006919
   54  H 14  S    0.000008   0.000009  -0.000011  -0.000070  -0.000155
   55  H 15  S    0.000004  -0.000122  -0.000001  -0.000014   0.000015
   56  H 16  S   -0.000081  -0.000041  -0.000061  -0.000035  -0.000045
   57  H 17  S   -0.000093   0.000012  -0.000022  -0.006875  -0.000079
   58  H 18  S   -0.000038   0.000012  -0.000080   0.000159  -0.000024
   59  H 19  S   -0.006838   0.000018   0.000214  -0.000122   0.000002
   60  H 20  S    0.000026  -0.000003  -0.006835  -0.000093   0.000001

                     11         12         13         14         15
                   -1.3077    -1.0865    -1.0060    -0.9579    -0.9321
                     A          A          A          A          A   
    1  C  1  S   -0.000667  -0.050968  -0.124248   0.064853  -0.058184
    2  C  1  S    0.001625   0.134976   0.335149  -0.177601   0.165907
    3  C  1  X    0.000063  -0.003177  -0.079997   0.045076   0.028318
    4  C  1  Y    0.000220   0.002619  -0.004564  -0.003601  -0.004695
    5  C  1  Z    0.000473   0.023082   0.035826  -0.003179  -0.001191
    6  C  2  S   -0.000698  -0.041920  -0.148698   0.068794   0.013621
    7  C  2  S    0.001555   0.105756   0.390675  -0.184535  -0.038520
    8  C  2  X    0.000342   0.025712   0.059065  -0.029222   0.046174
    9  C  2  Y    0.000368   0.008268   0.024924  -0.005680  -0.024859
   10  C  2  Z    0.000460   0.003703   0.006009   0.015807  -0.053459
   11  C  3  S   -0.002152  -0.032034  -0.101161   0.021476   0.084444
   12  C  3  S    0.005641   0.088686   0.283114  -0.057486  -0.248216
   13  C  3  X    0.001705   0.013264   0.002960   0.015838   0.000971
   14  C  3  Y    0.000543  -0.009091  -0.035038   0.014275  -0.000629
   15  C  3  Z    0.001127  -0.008311  -0.057791   0.043098  -0.004386
   16  C  4  S   -0.021532  -0.073664  -0.015884  -0.104037   0.118956
   17  C  4  S    0.054847   0.198882   0.048077   0.296230  -0.347324
   18  C  4  X    0.013636   0.042653  -0.024134   0.051290  -0.019565
   19  C  4  Y    0.025141  -0.013940  -0.012864  -0.043902  -0.047174
   20  C  4  Z    0.001206  -0.022300  -0.010952   0.004568  -0.016089
   21  C  5  S   -0.005129  -0.107227  -0.006380  -0.129624  -0.025603
   22  C  5  S    0.011727   0.272419   0.017737   0.353073   0.066756
   23  C  5  X   -0.001440   0.009252  -0.020809  -0.020547   0.074622
   24  C  5  Y    0.004888   0.044676  -0.005100   0.030088  -0.046290
   25  C  5  Z    0.000143  -0.055848  -0.000462  -0.017774  -0.104189
   26  C  6  S   -0.003567  -0.127640   0.012195  -0.049202  -0.124150
   27  C  6  S    0.008481   0.334761  -0.031722   0.131931   0.351052
   28  C  6  X   -0.000374  -0.009740  -0.040925  -0.049458   0.013293
   29  C  6  Y    0.002387   0.036556  -0.037185  -0.063728  -0.014822
[...]
 19   H            X -0.00860695 -0.00011919 -0.00083817 -0.09555290 -0.02194547
                   Y -0.06600823  0.00258668  0.01943900 -0.15134053 -0.02952245
                   Z -0.00599151  0.00056860  0.01094837  0.04006239  0.01034876
 20   H            X  0.00469024 -0.00016440 -0.00658781 -0.08581300 -0.06700491
                   Y  0.01773362  0.00019871 -0.01208861 -0.07727782  0.00283188
                   Z -0.00210747 -0.00065977  0.01505992  0.07760662  0.07401810

 TRANS. SAYVETZ    X -0.00000048 -0.00000057 -0.00000087 -0.00000155 -0.00000015
                   Y -0.00000153  0.00000106 -0.00000055 -0.00000150  0.00000128
                   Z  0.00000412  0.00000126  0.00000208  0.00000179  0.00000103
               TOTAL  0.00000442  0.00000174  0.00000232  0.00000280  0.00000165

   ROT. SAYVETZ    X -0.00031709 -0.00354426 -0.00435908  0.00085743  0.00102746
                   Y  0.00559913  0.00114688 -0.01286069  0.00162340  0.00091432
                   Z  0.00102125  0.00372921  0.00309024 -0.00075215 -0.00097870
               TOTAL  0.00570033  0.00527107  0.01392654  0.00198402  0.00168804

                           51          52          53          54          55
       FREQUENCY:      3634.33     3638.71     3689.50     3697.31     3699.06  
        SYMMETRY:         A           A           A           A           A   
    REDUCED MASS:      1.06235     1.06453     1.09084     1.09393     1.09619
    IR INTENSITY:      0.02530     0.10638     0.12798     0.07681     0.09948

  1   C            X -0.02726205  0.01790344 -0.00373545  0.00077696  0.00717793
                   Y -0.00406084  0.00325695 -0.00157285  0.00138449  0.00512220
                   Z  0.04921823 -0.03375117  0.00490308 -0.00147752 -0.00758533
  2   C            X -0.00192540 -0.00484126  0.00717708 -0.00592347 -0.03682900
                   Y -0.00976222  0.00099723  0.01371032 -0.01198723 -0.07128931
                   Z  0.00146198  0.00574702 -0.00147860  0.00096485  0.00761847
  3   C            X  0.01889350  0.02991753  0.00181428 -0.00084619 -0.00119831
                   Y -0.02831226 -0.04479746 -0.00577316  0.00249692  0.01097692
                   Z -0.01371781 -0.02027574 -0.00180872  0.00187274  0.00299776
  4   C            X -0.00170234 -0.00118158  0.03008207  0.02798696  0.00414550
                   Y -0.00095626  0.00062994  0.01081117  0.00751623  0.00074834
                   Z  0.00292098  0.00037609 -0.04741683 -0.04389611 -0.00567170
  5   C            X  0.00076505  0.00051756 -0.00953738 -0.00142228 -0.00019358
                   Y  0.00363032  0.00059435 -0.04071564  0.00933555 -0.00260268
                   Z -0.00091462 -0.00064556  0.01238871  0.00136959  0.00038643
  6   C            X  0.00172375  0.00056599 -0.01883516  0.03107651 -0.00986264
                   Y -0.00252531 -0.00090255  0.02768229 -0.04100655  0.01274466
                   Z -0.00145621  0.00078480  0.01400711 -0.02363900  0.00825818
  7   C            X -0.00075879  0.00002825  0.00636929 -0.01805454  0.00832213
                   Y  0.00004931  0.00006335 -0.00009405 -0.00097355  0.00072260
                   Z  0.00016577  0.00014690 -0.00700800  0.01921272 -0.00876878
  8   C            X  0.00019189  0.00003584 -0.00223557  0.00671427 -0.00296499
                   Y  0.00054506  0.00019164 -0.00380504  0.01229386 -0.00540653
                   Z -0.00009280  0.00006012  0.00074906 -0.00225681  0.00103878
  9   C            X -0.00015456 -0.00015911 -0.00070645 -0.00121722  0.00006302
                   Y  0.00027643 -0.00001559 -0.00107328 -0.00169673  0.00001041
                   Z -0.00025518 -0.00017913  0.00024351  0.00062659 -0.00010886
 10   O            X  0.00000454 -0.00001453  0.00003485  0.00009108  0.00000057
                   Y -0.00002680  0.00002288  0.00006662  0.00026597 -0.00000201
                   Z  0.00000839 -0.00000939 -0.00002638 -0.00001099  0.00002213
 11   H            X  0.10868970 -0.07251645  0.01026037 -0.00234026 -0.00944700
                   Y -0.43973616  0.29326236 -0.03498333  0.00706437  0.03060047
                   Z -0.35484109  0.23599039 -0.02722910  0.00574521  0.02435499
 12   H            X  0.16755079 -0.11232359  0.01926060 -0.00668093 -0.02720671
                   Y  0.48922542 -0.32984955  0.05180910 -0.02064789 -0.08602909
                   Z -0.18982088  0.12929464 -0.01851158  0.00775296  0.03171979
 13   H            X  0.06907610  0.01193337 -0.07478907  0.06543240  0.39457577
                   Y  0.14046977  0.02861454 -0.15298213  0.13326207  0.80357370
                   Z -0.01842078 -0.00160631  0.01958444 -0.01684969 -0.10160444
 14   H            X  0.08383291  0.12832955  0.01593330 -0.00548489 -0.02259451
                   Y  0.35101856  0.54625567  0.05879403 -0.02100418 -0.09092110
                   Z -0.07714156 -0.12026321 -0.01164661  0.00460954  0.02241576
 15   H            X -0.29884155 -0.45819482 -0.03257909  0.01279516  0.02663095
                   Y -0.03990014 -0.06176117 -0.00449367  0.00190071  0.00299762
                   Z  0.21116810  0.32420915  0.02514751 -0.01030721 -0.02105229
 16   H            X  0.01988964  0.00270879 -0.33454416 -0.30354644 -0.04034178
                   Y  0.00764812  0.00102211 -0.11338864 -0.10105020 -0.01313303
                   Z -0.03618208 -0.00500893  0.54614551  0.49378731  0.06427149
 17   H            X -0.00939048 -0.00206013  0.09988309 -0.01709628  0.00686058
                   Y -0.04290809 -0.00919594  0.47892300 -0.08632410  0.03289608
                   Z  0.01216460  0.00267684 -0.13893102  0.02361080 -0.00936704
 18   H            X -0.02285078 -0.00732027  0.22707535 -0.34913240  0.10944307
                   Y  0.02930895  0.00929555 -0.30789702  0.47191632 -0.14831018
                   Z  0.01441268  0.00428284 -0.16473589  0.25468462 -0.08105260
 19   H            X  0.00643644  0.00096188 -0.07475406  0.20861565 -0.09502488
                   Y  0.00141358 -0.00007427 -0.01181640  0.03293922 -0.01506129
                   Z -0.00682863 -0.00100993  0.07769784 -0.21527955  0.09816827
 20   H            X -0.00267115 -0.00074157  0.01995511 -0.06945728  0.03025510
                   Y -0.00655626 -0.00187226  0.04486267 -0.15274202  0.06653683
                   Z  0.00087157 -0.00002361 -0.00442210  0.01469626 -0.00635501

 TRANS. SAYVETZ    X -0.00000055 -0.00000045 -0.00000134  0.00000024  0.00000038
                   Y -0.00000015 -0.00000047 -0.00000057  0.00000045  0.00000025
                   Z  0.00000115  0.00000035  0.00000054  0.00000039  0.00000044
               TOTAL  0.00000128  0.00000074  0.00000156  0.00000064  0.00000063

   ROT. SAYVETZ    X -0.00026691 -0.00046385 -0.00031407  0.00037346  0.00003970
                   Y  0.00031542 -0.00096250  0.00053533  0.00116210 -0.00013025
                   Z  0.00028774  0.00037730  0.00045594 -0.00024559 -0.00004018
               TOTAL  0.00050351  0.00113311  0.00077013  0.00124509  0.00014197

                           56          57          58          59          60
       FREQUENCY:      3704.98     3715.89     3736.10     3785.88     3787.67  
        SYMMETRY:         A           A           A           A           A   
    REDUCED MASS:      1.09180     1.10090     1.10598     1.11706     1.11747
    IR INTENSITY:      0.49433     0.07552     0.06451     0.00062     0.01702

  1   C            X -0.00083850 -0.00004790 -0.00001076 -0.00534919 -0.00295142
                   Y  0.00032776  0.00162884 -0.00035457 -0.07940373 -0.04841060
                   Z  0.00067929 -0.00018796 -0.00000053 -0.01211120 -0.00788675
  2   C            X  0.00372612 -0.00323965  0.00004474 -0.00106803 -0.00238253
                   Y  0.00676597 -0.00590762  0.00008591 -0.00054829 -0.00466554
                   Z -0.00081270  0.00046494  0.00001332  0.00076825  0.00010090
  3   C            X -0.00000273  0.00048898 -0.00003821  0.03035910 -0.05020083
                   Y -0.00076483  0.00119685 -0.00030023  0.03075303 -0.04976003
                   Z  0.00027125 -0.00078239  0.00006746 -0.02336099  0.03854952
  4   C            X  0.00849191 -0.01698633  0.00175287  0.00007789 -0.00004436
                   Y  0.00153141 -0.00107649  0.00029451 -0.00016448  0.00010824
                   Z -0.01316619  0.02459215 -0.00240866 -0.00006831  0.00058343
  5   C            X  0.00205656 -0.01199814  0.00103335 -0.00014163 -0.00010069
                   Y  0.01810361 -0.06576506  0.00552336 -0.00017025 -0.00065400
                   Z -0.00376270  0.02118493 -0.00177930  0.00017364  0.00024299
  6   C            X  0.01264574  0.02269061 -0.00250752  0.00035303  0.00060344
                   Y -0.02100307 -0.02754258  0.00581180  0.00000153 -0.00034553
                   Z -0.00966854 -0.01989108  0.00251634 -0.00018716 -0.00021357
  7   C            X  0.04418982  0.00280482 -0.03354893  0.00015140  0.00020059
                   Y  0.00783766  0.00249196  0.00173953  0.00003406 -0.00005711
                   Z -0.04508061 -0.00212446  0.03685978 -0.00046714 -0.00047204
  8   C            X -0.01831585 -0.00459763 -0.02610086 -0.00005762 -0.00013866
                   Y -0.03506436 -0.01085125 -0.06934264 -0.00005399  0.00009487
                   Z  0.00575359  0.00068716  0.00096479 -0.00004867  0.00001448
  9   C            X  0.00091545  0.00057089  0.00165480  0.00002321 -0.00010835
                   Y  0.00053122  0.00109939  0.00020645 -0.00000390  0.00006190
                   Z -0.00080687 -0.00015389 -0.00171277  0.00011170 -0.00012229
 10   O            X -0.00009749 -0.00001561 -0.00020223  0.00001700 -0.00002086
                   Y -0.00013509 -0.00017592  0.00011220 -0.00000622  0.00001191
                   Z  0.00004616 -0.00004802  0.00026422  0.00000075 -0.00001454
 11   H            X  0.00167232  0.00144304 -0.00021159 -0.10567555 -0.06440812
                   Y -0.00570605 -0.00495517  0.00141521  0.42396078  0.25987533
                   Z -0.00445970 -0.00380969  0.00110264  0.34669463  0.21204669
 12   H            X  0.00073191 -0.00356019  0.00066022  0.17389945  0.10555766
                   Y  0.00363283 -0.01191411  0.00328982  0.51194686  0.30946039
                   Z -0.00166597  0.00419203 -0.00130556 -0.20420306 -0.12336123
 13   H            X -0.03818847  0.03314815 -0.00027156  0.00875308  0.02870289
                   Y -0.07766231  0.06752914 -0.00079717  0.01060751  0.05703862
                   Z  0.00967774 -0.00855901  0.00008104 -0.00436065 -0.00531565
 14   H            X  0.00190390 -0.00307323  0.00104446 -0.07484194  0.12197302
                   Y  0.00681903 -0.01179545  0.00315949 -0.32828165  0.53324464
                   Z -0.00187395  0.00314518 -0.00059678  0.07270738 -0.11742948
 15   H            X -0.00041492 -0.00434267 -0.00008785 -0.28437109  0.46722102
                   Y -0.00008444 -0.00055791 -0.00006995 -0.03554545  0.05904109
                   Z  0.00007496  0.00345705  0.00005790  0.20023031 -0.32867690
 16   H            X -0.08875789  0.16273548 -0.01452929 -0.00160565  0.00440940
                   Y -0.02980015  0.05274527 -0.00470552 -0.00049636  0.00156421
                   Z  0.14414476 -0.26302682  0.02368051  0.00308515 -0.00827515
 17   H            X -0.03974760  0.14765435 -0.01132102  0.00053059  0.00150283
                   Y -0.19881948  0.72120243 -0.05734867  0.00210360  0.00710235
                   Z  0.05735174 -0.21125715  0.01679361 -0.00071496 -0.00197913
 18   H            X -0.15897055 -0.23681901  0.03600910 -0.00432774 -0.00521916
                   Y  0.21843953  0.32021815 -0.05073139  0.00519047  0.00673138
                   Z  0.11611739  0.17491123 -0.02690398  0.00247726  0.00335924
 19   H            X -0.50039967 -0.02998556  0.35350107 -0.00306950 -0.00321867
                   Y -0.08211715 -0.00605244  0.05575981 -0.00022719 -0.00029398
                   Z  0.51252836  0.02989368 -0.36271004  0.00299071  0.00305838
 20   H            X  0.19422178  0.05585942  0.32568440  0.00052908  0.00014825
                   Y  0.42623241  0.12332560  0.71902948  0.00089542 -0.00007436
                   Z -0.03971072 -0.01144114 -0.06542161  0.00008145  0.00011318

 TRANS. SAYVETZ    X -0.00000005  0.00000054 -0.00000003  0.00000000 -0.00000002
                   Y -0.00000020 -0.00000041  0.00000011  0.00000007  0.00000008
                   Z  0.00000004 -0.00000047  0.00000001  0.00000005 -0.00000003
               TOTAL  0.00000021  0.00000083  0.00000011  0.00000009  0.00000009

   ROT. SAYVETZ    X  0.00017362  0.00021935 -0.00005067 -0.00036081 -0.00074303
                   Y  0.00041052 -0.00007599  0.00000134 -0.00055174  0.00077536
                   Z -0.00013607 -0.00028603  0.00005832  0.00030823  0.00096253
               TOTAL  0.00046603  0.00036837  0.00007726  0.00072774  0.00144213

 REFERENCE ON SAYVETZ CONDITIONS - A. SAYVETZ, J.CHEM.PHYS., 7, 383-389(1939).

 NOTE - THE MODES J,K ARE ORTHONORMALIZED ACCORDING TO
 SUM ON I   M(I) * (X(I,J)*X(I,K) + Y(I,J)*Y(I,K) + Z(I,J)*Z(I,K)) = DELTA(J,K)

  MODE FREQ(CM**-1)  SYMMETRY  RED. MASS  IR INTENS.
     1    1105.025    A        9.337512    0.024509
     2       0.023    A        6.721063    0.000004
     3       0.015    A        6.700610    0.000000
     4       0.004    A        6.703637    0.000000
     5       1.392    A        4.801387    0.014727
     6      29.481    A        5.891651    0.016256
     7      35.838    A        4.148847    0.001077
     8     110.733    A        4.132758    0.028015
     9     202.445    A        3.552386    0.015159
    10     257.735    A        4.163981    0.029875
    11     373.628    A        5.303109    0.031091
    12     410.174    A        5.704766    0.169161
    13     456.159    A        1.990619    0.060324
    14     487.180    A        3.523070    0.073582
    15     497.132    A        4.520005    0.137159
    16     536.885    A        1.988660    0.234256
    17     570.912    A        2.521748    0.186634
    18     603.781    A        5.425771    0.018137
    19     674.649    A        5.938509    0.036247
    20     837.149    A        3.394288    0.044702
    21     852.860    A        4.080713    0.044629
    22     924.923    A        1.631627    1.208980
    23     935.612    A        1.774979    0.149315
    24     971.335    A        1.615381    0.876988
    25     995.135    A        1.365056    0.224844
    26    1023.974    A        1.418930    0.043244
    27    1084.995    A        1.839856    0.188576
    28    1122.433    A        2.888292    0.002577
    29    1171.613    A        1.971685    0.073777
    30    1201.749    A        1.125583    0.032735
    31    1209.691    A        1.271836    0.004300
    32    1228.761    A        1.503060    0.137651
    33    1260.352    A        1.270395    0.221263
    34    1278.539    A        1.151199    0.415573
    35    1305.196    A        1.232839    0.016374
    36    1328.609    A        1.261003    0.107564
    37    1355.721    A        1.266735    0.030035
    38    1358.663    A        1.122897    0.019562
    39    1419.225    A        1.832353    0.645109
    40    1471.293    A        1.330390    0.100990
    41    1484.861    A        1.781861    0.004815
    42    1600.511    A        1.604171    0.151337
    43    1639.635    A        1.714787    0.150525
    44    1668.153    A        1.505946    0.060445
    45    1727.117    A        2.567290    0.327408
    46    1758.623    A        1.892422    0.050070
    47    1811.295    A        1.277772    0.196586
    48    1863.183    A        2.593619    0.054746
    49    2004.909    A        7.008462    0.061488
    50    2075.457    A       10.553422    1.845744
    51    3634.334    A        1.062354    0.025302
    52    3638.710    A        1.064525    0.106384
    53    3689.502    A        1.090838    0.127977
    54    3697.307    A        1.093932    0.076811
    55    3699.056    A        1.096188    0.099482
    56    3704.978    A        1.091798    0.494326
    57    3715.887    A        1.100902    0.075524
    58    3736.103    A        1.105982    0.064507
    59    3785.878    A        1.117058    0.000624
    60    3787.668    A        1.117465    0.017023

     -------------------------------
     THERMOCHEMISTRY AT T=  298.15 K
     -------------------------------

 USING IDEAL GAS, RIGID ROTOR, HARMONIC NORMAL MODE APPROXIMATIONS.
 P=  1.01325E+05 PASCAL.
 ALL FREQUENCIES ARE SCALED BY   1.00000
 THE MOMENTS OF INERTIA ARE (IN AMU*BOHR**2)
            865.18791          1321.62008          1660.66947
 THE ROTATIONAL SYMMETRY NUMBER IS  1.0
 THE ROTATIONAL CONSTANTS ARE (IN GHZ)
      2.08404     1.36430     1.08576
   1 IMAGINARY FREQUENCY VIBRATION(S) IS(ARE) EXCLUDED
     FROM THE FOLLOWING THERMOCHEMICAL ANALYSIS.
      8 -     60 VIBRATIONAL MODES ARE USED IN THERMOCHEMISTRY.
 THE HARMONIC ZERO POINT ENERGY IS (SCALED BY   1.000)
        0.191918 HARTREE/MOLECULE    42121.204869 CM**-1/MOLECULE 
      120.430689 KCAL/MOL              503.882002 KJ/MOL

               Q               LN Q
 ELEC.     1.00000E+00       0.000000
 TRANS.    6.10192E+07      17.926699
 ROT.      4.93278E+05      13.108828
 VIB.      1.47802E+01       2.693289
 TOT.      4.44876E+14      33.728816

              E         H         G         CV        CP        S
           KJ/MOL    KJ/MOL    KJ/MOL   J/MOL-K   J/MOL-K   J/MOL-K
 ELEC.      0.000     0.000     0.000     0.000     0.000     0.000
 TRANS.     3.718     6.197   -44.439    12.472    20.786   169.836
 ROT.       3.718     3.718   -32.496    12.472    12.472   121.464
 VIB.     515.201   515.201   497.205    94.218    94.218    60.356
 TOTAL    522.637   525.116   420.270   119.161   127.475   351.656
 VIB. THERMAL CORRECTION E(T)-E(0) = H(T)-H(0) =     11318.641 J/MOL

              E         H         G         CV        CP        S
         KCAL/MOL  KCAL/MOL  KCAL/MOL CAL/MOL-K CAL/MOL-K CAL/MOL-K
 ELEC.      0.000     0.000     0.000     0.000     0.000     0.000
 TRANS.     0.889     1.481   -10.621     2.981     4.968    40.592
 ROT.       0.889     0.889    -7.767     2.981     2.981    29.031
 VIB.     123.136   123.136   118.835    22.519    22.519    14.425
 TOTAL    124.913   125.506   100.447    28.480    30.467    84.048
 VIB. THERMAL CORRECTION E(T)-E(0) = H(T)-H(0) =      2705.220 CAL/MOL

     *******************************************************
     * THIS IS NOT A STATIONARY POINT ON THE MOLECULAR PES *
     *     THE VIBRATIONAL ANALYSIS IS NOT VALID !!!       *
     *******************************************************
 ......END OF NORMAL COORDINATE ANALYSIS......
 STEP CPU TIME =     0.01 TOTAL CPU TIME =        186.7 (      3.1 MIN)
 TOTAL WALL CLOCK TIME=        187.4 SECONDS, CPU UTILIZATION IS    99.64%
               580000  WORDS OF DYNAMIC MEMORY USED
 EXECUTION OF GAMESS TERMINATED NORMALLY Fri Nov 12 20:48:18 2021
 DDI: 263640 bytes (0.3 MB / 0 MWords) used by master data server.

 ----------------------------------------
 CPU timing information for all processes
 ========================================
 0: 183.534 + 3.174 = 186.709
 ----------------------------------------
 ddikick.x: exited gracefully.
----- accounting info -----
Files used on the master node chemcompute-node-0.novalocal were:
-rw-r--r--. 1 chemcomp chemcomp     1346 Nov 12 20:45 /scratch/305538/341398.F05
-rw-rw-r--. 1 chemcomp chemcomp 18001600 Nov 12 20:47 /scratch/305538/341398.F08
-rw-rw-r--. 1 chemcomp chemcomp 85196800 Nov 12 20:48 /scratch/305538/341398.F10
-rw-rw-r--. 1 chemcomp chemcomp   878880 Nov 12 20:48 /scratch/305538/341398.F18
Fri Nov 12 20:48:22 UTC 2021
0.111u 0.116s 3:10.91 0.1%	0+0k 8+216io 0pf+0w
Finishing Up...
Looking for IR data...
Looking for Raman data...
vibramans not found
Looking for thermodynamics data...
Looking for UV-Vis data...
305538
