----- GAMESS execution script 'rungms' -----
This job is running on host chemcompute-node-0.novalocal
under operating system Linux at Fri Nov 12 21:24:45 UTC 2021
SLURM has assigned the following compute nodes to this run:
chemcompute-node-0
Available scratch disk space (Kbyte units) at beginning of the job is
Filesystem     1K-blocks     Used Available Use% Mounted on
/dev/sda1       62903276 16729680  46173596  27% /
GAMESS temporary binary files will be written to /scratch/305554
GAMESS supplementary output files will be written to /data/slurm/341415
Copying input file 341415.inp to your run's scratch directory...
The generated host list is
chemcompute-node-0.novalocal

 Distributed Data Interface kickoff program.
 Initiating 1 compute processes on 1 nodes to run the following command:
 /data/gamess-2019R1-ddi/gamess.00.x 341415 

          ******************************************************
          *         GAMESS VERSION = 30 JUN 2019 (R1)          *
          *             FROM IOWA STATE UNIVERSITY             *
          * M.W.SCHMIDT, K.K.BALDRIDGE, J.A.BOATZ, S.T.ELBERT, *
          *   M.S.GORDON, J.H.JENSEN, S.KOSEKI, N.MATSUNAGA,   *
          *          K.A.NGUYEN, S.J.SU, T.L.WINDUS,           *
          *       TOGETHER WITH M.DUPUIS, J.A.MONTGOMERY       *
          *         J.COMPUT.CHEM.  14, 1347-1363(1993)        *
          **************** 64 BIT LINUX VERSION ****************

  SINCE 1993, STUDENTS AND POSTDOCS WORKING AT IOWA STATE UNIVERSITY
  AND ALSO IN THEIR VARIOUS JOBS AFTER LEAVING ISU HAVE MADE IMPORTANT
  CONTRIBUTIONS TO THE CODE:
     IVANA ADAMOVIC, CHRISTINE AIKENS, YURI ALEXEEV, POOJA ARORA,
     ANDREY ASADCHEV, ROB BELL, PRADIPTA BANDYOPADHYAY, JONATHAN BENTZ,
     COLLEEN BERTONI, BRETT BODE, KURT BRORSEN, CALEB CARLIN, GALINA CHABAN,
     WEI CHEN, CHEOL HO CHOI, PAUL DAY, ALBERT DEFUSCO, NUWAN DESILVA,
     TIM DUDLEY, DMITRI FEDOROV, ALEX FINDLATER, GRAHAM FLETCHER, 
     MARK FREITAG, KURT GLAESEMANN, ANASTASIA GUNINA,
     DAN KEMP, GRANT MERRILL, NORIYUKI MINEZAWA, JONATHAN MULLIN,
     TAKESHI NAGATA, SEAN NEDD, HEATHER NETZLOFF, BOSILJKA NJEGIC, RYAN OLSON,
     MIKE PAK, BUU PHAM,
     SPENCER PRUITT, LUKE ROSKOP, JIM SHOEMAKER, LYUDMILA SLIPCHENKO,
     TONY SMITH, SAROM SOK LEANG, JIE SONG, TETSUYA TAKETSUGU, SIMON WEBB,
     PENG XU, SOOHAENG YOO, FEDERICO ZAHARIEV

  ADDITIONAL CODE HAS BEEN PROVIDED BY COLLABORATORS IN OTHER GROUPS:
     IOWA STATE UNIVERSITY:
          JOE IVANIC, AARON WEST, LAIMUTIS BYTAUTAS, KLAUS RUEDENBERG
     UNIVERSITY OF TOKYO: KIMIHIKO HIRAO, TAKAHITO NAKAJIMA,
          TAKAO TSUNEDA, MUNEAKI KAMIYA, SUSUMU YANAGISAWA,
          KIYOSHI YAGI, MAHITO CHIBA, SEIKEN TOKURA, NAOAKI KAWAKAMI
     UNIVERSITY OF AARHUS: FRANK JENSEN
     UNIVERSITY OF IOWA: VISVALDAS KAIRYS, HUI LI
     NATIONAL INST. OF STANDARDS AND TECHNOLOGY: WALT STEVENS, DAVID GARMER
     UNIVERSITY OF PISA: BENEDETTA MENNUCCI, JACOPO TOMASI
     UNIVERSITY OF MEMPHIS: HENRY KURTZ, PRAKASHAN KORAMBATH
     UNIVERSITY OF ALBERTA: TOBY ZENG, MARIUSZ KLOBUKOWSKI
     UNIVERSITY OF NEW ENGLAND: MARK SPACKMAN
     MIE UNIVERSITY: HIROAKI UMEDA
     NAT. INST. OF ADVANCED INDUSTRIAL SCIENCE AND TECHNOLOGY: KAZUO KITAURA
     MICHIGAN STATE UNIVERSITY:
          KAROL KOWALSKI, MARTA WLOCH, JEFFREY GOUR, JESSE LUTZ,
          WEI LI, JUN SHEN, J. EMILIANO DEUSTUA, PIOTR PIECUCH
     UNIVERSITY OF MINNESOTA:
          YINAN SHU
     UNIVERSITY OF SILESIA: MONIKA MUSIAL, STANISLAW KUCHARSKI
     FACULTES UNIVERSITAIRES NOTRE-DAME DE LA PAIX:
          OLIVIER QUINET, BENOIT CHAMPAGNE
     UNIVERSITY OF CALIFORNIA - SANTA BARBARA: BERNARD KIRTMAN
     INSTITUTE FOR MOLECULAR SCIENCE:
          KAZUYA ISHIMURA, MICHIO KATOUDA, AND SHIGERU NAGASE
     UNIVERSITY OF NOTRE DAME: ANNA POMOGAEVA, DAN CHIPMAN
     KYUSHU UNIVERSITY:
          HARUYUKI NAKANO,
          FENG LONG GU, JACEK KORCHOWIEC, MARCIN MAKOWSKI, AND YURIKO AOKI,
          HIROTOSHI MORI AND EISAKU MIYOSHI
     PENNSYLVANIA STATE UNIVERSITY:
          TZVETELIN IORDANOV, CHET SWALINA, JONATHAN SKONE,
          SHARON HAMMES-SCHIFFER
     WASEDA UNIVERSITY:
          MASATO KOBAYASHI, TOMOKO AKAMA, TSUGUKI TOUMA,
          TAKESHI YOSHIKAWA, YASUHIRO IKABATA, JUNJI SEINO,
          YUYA NAKAJIMA, HIROMI NAKAI
     NANJING UNIVERSITY: SHUHUA LI
     UNIVERSITY OF NEBRASKA:
          PEIFENG SU, DEJUN SI, NANDUN THELLAMUREGE, YALI WANG, HUI LI
     UNIVERSITY OF ZURICH: ROBERTO PEVERATI, KIM BALDRIDGE
     N. COPERNICUS UNIVERSITY AND JACKSON STATE UNIVERSITY:
          MARIA BARYSZ
     UNIVERSITY OF COPENHAGEN: Jimmy Kromann, CASPER STEINMANN
     TOKYO INSTITUTE OF TECHNOLOGY: HIROYA NAKATA
     NAGOYA UNIVERSITY: YOSHIO NISHIMOTO, STEPHAN IRLE
     MOSCOW STATE UNIVERSITY: VLADIMIR MIRONOV
     A.N.NESMEYANOV INSTITUTE OF ORGANOELEMENT COMPOUNDS OF RUSSIAN ACADEMY OF SCIENCES:
          IGOR S. GERASIMOV

 EXECUTION OF GAMESS BEGUN Fri Nov 12 21:24:45 2021

            ECHO OF THE FIRST FEW INPUT CARDS -
 INPUT CARD>!File created by the GAMESS Input Deck Generator Plugin for Avogadro            
 INPUT CARD> $BASIS GBASIS=STO NGAUSS=3 $END                                                
 INPUT CARD> $CONTRL SCFTYP=RHF RUNTYP=SADPOINT $END                                        
 INPUT CARD> $STATPT hssend=.t. OPTTOL=0.0005 NSTEP=50 $END                                 
 INPUT CARD> $STATPT HESS=calc ihrep=5 $END                                                 
 INPUT CARD> $FORCE nvib=2 $END                                                             
 INPUT CARD> $ZMAT DLC=.t. auto=.t. nonvdw(1)=1,6,3,4,4,5,5,6,1,2,2,3 $END                  
 INPUT CARD>!$ZMAT IFZMAT(1)=1,1,6,1,3,4 fvalue(1)=2.00,2.00 $END                           
 INPUT CARD>                                                                                
 INPUT CARD> $DATA                                                                          
 INPUT CARD>Title                                                                           
 INPUT CARD>C1                                                                              
 INPUT CARD>C     6.0     4.46479654    -1.76523983    -2.85273814                          
 INPUT CARD>C     6.0     3.27537727    -1.80556810    -2.11621284                          
 INPUT CARD>C     6.0     3.04669881    -0.85111409    -1.11827826                          
 INPUT CARD>C     6.0     4.51476622    -1.08808720     0.21911538                          
 INPUT CARD>C     6.0     5.30815220    -2.12350011    -0.28981885                          
 INPUT CARD>C     6.0     5.94708395    -1.88760400    -1.51563287                          
 INPUT CARD>C     6.0     6.54120588    -0.51214987    -1.67586124                          
 INPUT CARD>C     6.0     6.17070436     0.49823070    -0.91541708                          
 INPUT CARD>C     6.0     5.10912466     0.32529587     0.14639284                          
 INPUT CARD>O     8.0     4.74689722     1.23254585     0.88359034                          
 INPUT CARD>H     1.0     4.66502333    -2.58646750    -3.53307009                          
 INPUT CARD>H     1.0     4.77826071    -0.80747336    -3.24971128                          
 INPUT CARD>H     1.0     2.80404615    -2.77343488    -1.99037647                          
 INPUT CARD>H     1.0     3.26636291     0.18286413    -1.35642862                          
 INPUT CARD>H     1.0     2.15936160    -0.95849067    -0.50367033                          
 INPUT CARD>H     1.0     3.96371937    -1.27382946     1.13651502                          
 INPUT CARD>H     1.0     5.09565306    -3.14394259     0.00477275                          
 INPUT CARD>H     1.0     6.54566050    -2.68798900    -1.93964374                          
 INPUT CARD>H     1.0     7.29342556    -0.38835442    -2.44730735                          
 INPUT CARD>H     1.0     6.61577559     1.48049927    -1.00460732                          
 INPUT CARD> $END                                                                           
    1000000 WORDS OF MEMORY AVAILABLE

     BASIS OPTIONS
     -------------
     GBASIS=STO          IGAUSS=       3      POLAR=NONE    
     NDFUNC=       0     NFFUNC=       0     DIFFSP=       F
     NPFUNC=       0      DIFFS=       F     BASNAM=        


     RUN TITLE
     ---------
 Title                                                                           

 THE POINT GROUP OF THE MOLECULE IS C1      
 THE ORDER OF THE PRINCIPAL AXIS IS     0

 ATOM      ATOMIC                      COORDINATES (BOHR)
           CHARGE         X                   Y                   Z
 C           6.0     8.4372420515       -3.3358195813       -5.3908933993
 C           6.0     6.1895655467       -3.4120289612       -3.9990623993
 C           6.0     5.7574259180       -1.6083724144       -2.1132394894
 C           6.0     8.5316710544       -2.0561866587        0.4140680279
 C           6.0    10.0309531591       -4.0128333428       -0.5476782126
 C           6.0    11.2383590915       -3.5670543333       -2.8641308223
 C           6.0    12.3610867425       -0.9678229189       -3.1669185370
 C           6.0    11.6609403916        0.9415195017       -1.7298874457
 C           6.0     9.6548456445        0.6147200592        0.2766423542
 O           8.0     8.9703350377        2.3291739238        1.6697436280
 H           1.0     8.8156158200       -4.8877148511       -6.6765343655
 H           1.0     9.0296034398       -1.5259033928       -6.1410638584
 H           1.0     5.2988788804       -5.2410319680       -3.7612661407
 H           1.0     6.1725308764        0.3455630987       -2.5632784137
 H           1.0     4.0806017324       -1.8112847281       -0.9517989118
 H           1.0     7.4903435015       -2.4071886345        2.1477019687
 H           1.0     9.6293880119       -5.9411900162        0.0090191897
 H           1.0    12.3695047537       -5.0795626680       -3.6653951824
 H           1.0    13.7825758202       -0.7338834399       -4.6247402992
 H           1.0    12.5020030614        2.7977379453       -1.8984325601

          INTERNUCLEAR DISTANCES (ANGS.)
          ------------------------------

                1 C          2 C          3 C          4 C          5 C     

   1 C       0.0000000    1.3995764 *  2.4197062 *  3.1460001    2.7217925 *
   2 C       1.3995764 *  0.0000000    1.3996963 *  2.7394565 *  2.7511761 *
   3 C       2.4197062 *  1.3996963 *  0.0000000    2.0000000 *  2.7238727 *
   4 C       3.1460001    2.7394565 *  2.0000000 *  0.0000000    1.4001983 *
   5 C       2.7217925 *  2.7511761 *  2.7238727 *  1.4001983 *  0.0000000  
   6 C       1.9999999 *  2.7396063 *  3.1055492    2.3874909 *  1.4023198 *
   7 C       2.6956909 *  3.5401238    3.5549086    2.8335663 *  2.4572311 *
   8 C       3.4331666    3.8900281    3.4090020    2.5584565 *  2.8299897 *
   9 C       3.7121806    3.6086833    2.6901550 *  1.5349926 *  2.4952944 *
  10 O       4.7985884    4.5160078    3.3525798    2.4250257 *  3.5992973  
  11 H       1.0850609 *  2.1326989 *  3.3855052    4.0430949    3.3386572  
  12 H       1.0831270 *  2.1306502 *  2.7464919 *  3.4901192    3.2823276  
  13 H       2.1256097 *  1.0838607 *  2.1247948 *  3.2632521    3.0959423  
  14 H       2.7331839 *  2.1286653 *  1.0835492 *  2.3782697 *  3.2597356  
  15 H       3.3888042    2.1361939 *  1.0847304 *  2.4672141 *  3.3642030  
  16 H       4.0505189    3.3670164    2.4705683 *  1.0861744 *  2.1363212 *
  17 H       3.2348369    3.0989079    3.2736096    2.1470710 *  1.0831634 *
  18 H       2.4525909 *  3.3918425    4.0362710    3.3681535    2.1382228 *
  19 H       3.1719599    4.2735033    4.4738298    3.9141262    3.4068750  
  20 H       4.3101184    4.8158246    4.2646982    3.5368594    3.8999504  

                6 C          7 C          8 C          9 C         10 O     

   1 C       1.9999999 *  2.6956909 *  3.4331666    3.7121806    4.7985884  
   2 C       2.7396063 *  3.5401238    3.8900281    3.6086833    4.5160078  
   3 C       3.1055492    3.5549086    3.4090020    2.6901550 *  3.3525798  
   4 C       2.3874909 *  2.8335663 *  2.5584565 *  1.5349926 *  2.4250257 *
   5 C       1.4023198 *  2.4572311 *  2.8299897 *  2.4952944 *  3.5992973  
   6 C       0.0000000    1.5068272 *  2.4703183 *  2.8916139 *  4.1148579  
   7 C       1.5068272 *  0.0000000    1.3177312 *  2.4643015 *  3.5797066  
   8 C       2.4703183 *  1.3177312 *  0.0000000    1.5113895 *  2.4089154 *
   9 C       2.8916139 *  2.4643015 *  1.5113895 *  0.0000000    1.2238347 *
  10 O       4.1148579    3.5797066    2.4089154 *  1.2238347 *  0.0000000  
  11 H       2.4904101 *  3.3573917    4.3167749    4.7131772    5.8393883  
  12 H       2.3536903 *  2.3816372 *  3.0154091    3.5952970    4.6094299  
  13 H       3.2998128    4.3793484    4.8159860    4.4137628    5.2992676  
  14 H       3.3909364    3.3629865    2.9545129 *  2.3821272 *  2.8829670 *
  15 H       4.0291637    4.5578296    4.2874752    3.2820408    3.6633965  
  16 H       3.3681364    3.8901225    3.4959127    2.2021574 *  2.6380401 *
  17 H       2.1482445 *  3.4410008    3.9074174    3.4721540    4.4774549  
  18 H       1.0856773 *  2.1917748 *  3.3677334    3.9363777    5.1552685  
  19 H       2.2200005 *  1.0845685 *  2.0960019 *  3.4652197    4.4952201  
  20 H       3.4716589    2.1039945 *  1.0820789 *  2.2202012 *  2.6682349 *

               11 H         12 H         13 H         14 H         15 H     

   1 C       1.0850609 *  1.0831270 *  2.1256097 *  2.7331839 *  3.3888042  
   2 C       2.1326989 *  2.1306502 *  1.0838607 *  2.1286653 *  2.1361939 *
   3 C       3.3855052    2.7464919 *  2.1247948 *  1.0835492 *  1.0847304 *
   4 C       4.0430949    3.4901192    3.2632521    2.3782697 *  2.4672141 *
   5 C       3.3386572    3.2823276    3.0959423    3.2597356    3.3642030  
   6 C       2.4904101 *  2.3536903 *  3.2998128    3.3909364    4.0291637  
   7 C       3.3573917    2.3816372 *  4.3793484    3.3629865    4.5578296  
   8 C       4.3167749    3.0154091    4.8159860    2.9545129 *  4.2874752  
   9 C       4.7131772    3.5952970    4.4137628    2.3821272 *  3.2820408  
  10 O       5.8393883    4.6094299    5.2992676    2.8829670 *  3.6633965  
  11 H       0.0000000    1.8049751 *  2.4244786 *  3.7898835    4.2551042  
  12 H       1.8049751 *  0.0000000    3.0575238    2.6174649 *  3.7976545  
  13 H       2.4244786 *  3.0575238    0.0000000    3.0586485    2.4330918 *
  14 H       3.7898835    2.6174649 *  3.0586485    0.0000000    1.8042559 *
  15 H       4.2551042    3.7976545    2.4330918 *  1.8042559 *  0.0000000  
  16 H       4.9010071    4.4855264    3.6566527    2.9703586 *  2.4587301 *
  17 H       3.6072916    4.0188920    3.0609408    4.0332139    3.6954732  
  18 H       2.4670043 *  2.8941869 *  3.7429337    4.3972412    4.9287729  
  19 H       3.5943122    2.6731193 *  5.1041084    4.2111211    5.5191841  
  20 H       5.1709551    3.6948304    5.7962900    3.6091828    5.1048247  

               16 H         17 H         18 H         19 H         20 H     

   1 C       4.0505189    3.2348369    2.4525909 *  3.1719599    4.3101184  
   2 C       3.3670164    3.0989079    3.3918425    4.2735033    4.8158246  
   3 C       2.4705683 *  3.2736096    4.0362710    4.4738298    4.2646982  
   4 C       1.0861744 *  2.1470710 *  3.3681535    3.9141262    3.5368594  
   5 C       2.1363212 *  1.0831634 *  2.1382228 *  3.4068750    3.8999504  
   6 C       3.3681364    2.1482445 *  1.0856773 *  2.2200005 *  3.4716589  
   7 C       3.8901225    3.4410008    2.1917748 *  1.0845685 *  2.1039945 *
   8 C       3.4959127    3.9074174    3.3677334    2.0960019 *  1.0820789 *
   9 C       2.2021574 *  3.4721540    3.9363777    3.4652197    2.2202012 *
  10 O       2.6380401 *  4.4774549    5.1552685    4.4952201    2.6682349 *
  11 H       4.9010071    3.6072916    2.4670043 *  3.5943122    5.1709551  
  12 H       4.4855264    4.0188920    2.8941869 *  2.6731193 *  3.6948304  
  13 H       3.6566527    3.0609408    3.7429337    5.1041084    5.7962900  
  14 H       2.9703586 *  4.0332139    4.3972412    4.2111211    3.6091828  
  15 H       2.4587301 *  3.6954732    4.9287729    5.5191841    5.1048247  
  16 H       0.0000000    2.4615925 *  4.2578187    4.9713974    4.3822521  
  17 H       2.4615925 *  0.0000000    2.4680297 *  4.2937358    4.9714267  
  18 H       4.2578187    2.4680297 *  0.0000000    2.4708691 *  4.2726460  
  19 H       4.9713974    4.2937358    2.4708691 *  0.0000000    2.4562587 *
  20 H       4.3822521    4.9714267    4.2726460    2.4562587 *  0.0000000  

  * ... LESS THAN  3.000


     ATOMIC BASIS SET
     ----------------
 THE CONTRACTED PRIMITIVE FUNCTIONS HAVE BEEN UNNORMALIZED
 THE CONTRACTED BASIS FUNCTIONS ARE NOW NORMALIZED TO UNITY

  SHELL TYPE  PRIMITIVE        EXPONENT          CONTRACTION COEFFICIENT(S)

 C         

      1   S       1            71.6168373    0.154328967295
      1   S       2            13.0450963    0.535328142282
      1   S       3             3.5305122    0.444634542185

      2   L       4             2.9412494   -0.099967229187    0.155916274999
      2   L       5             0.6834831    0.399512826089    0.607683718598
      2   L       6             0.2222899    0.700115468880    0.391957393099

 C         

      3   S       7            71.6168373    0.154328967295
      3   S       8            13.0450963    0.535328142282
      3   S       9             3.5305122    0.444634542185

      4   L      10             2.9412494   -0.099967229187    0.155916274999
      4   L      11             0.6834831    0.399512826089    0.607683718598
      4   L      12             0.2222899    0.700115468880    0.391957393099

 C         

      5   S      13            71.6168373    0.154328967295
      5   S      14            13.0450963    0.535328142282
      5   S      15             3.5305122    0.444634542185

      6   L      16             2.9412494   -0.099967229187    0.155916274999
      6   L      17             0.6834831    0.399512826089    0.607683718598
      6   L      18             0.2222899    0.700115468880    0.391957393099

 C         

      7   S      19            71.6168373    0.154328967295
      7   S      20            13.0450963    0.535328142282
      7   S      21             3.5305122    0.444634542185

      8   L      22             2.9412494   -0.099967229187    0.155916274999
      8   L      23             0.6834831    0.399512826089    0.607683718598
      8   L      24             0.2222899    0.700115468880    0.391957393099

 C         

      9   S      25            71.6168373    0.154328967295
      9   S      26            13.0450963    0.535328142282
      9   S      27             3.5305122    0.444634542185

     10   L      28             2.9412494   -0.099967229187    0.155916274999
     10   L      29             0.6834831    0.399512826089    0.607683718598
     10   L      30             0.2222899    0.700115468880    0.391957393099

 C         

     11   S      31            71.6168373    0.154328967295
     11   S      32            13.0450963    0.535328142282
     11   S      33             3.5305122    0.444634542185

     12   L      34             2.9412494   -0.099967229187    0.155916274999
     12   L      35             0.6834831    0.399512826089    0.607683718598
     12   L      36             0.2222899    0.700115468880    0.391957393099

 C         

     13   S      37            71.6168373    0.154328967295
     13   S      38            13.0450963    0.535328142282
     13   S      39             3.5305122    0.444634542185

     14   L      40             2.9412494   -0.099967229187    0.155916274999
     14   L      41             0.6834831    0.399512826089    0.607683718598
     14   L      42             0.2222899    0.700115468880    0.391957393099

 C         

     15   S      43            71.6168373    0.154328967295
     15   S      44            13.0450963    0.535328142282
     15   S      45             3.5305122    0.444634542185

     16   L      46             2.9412494   -0.099967229187    0.155916274999
     16   L      47             0.6834831    0.399512826089    0.607683718598
     16   L      48             0.2222899    0.700115468880    0.391957393099

 C         

     17   S      49            71.6168373    0.154328967295
     17   S      50            13.0450963    0.535328142282
     17   S      51             3.5305122    0.444634542185

     18   L      52             2.9412494   -0.099967229187    0.155916274999
     18   L      53             0.6834831    0.399512826089    0.607683718598
     18   L      54             0.2222899    0.700115468880    0.391957393099

 O         

     19   S      55           130.7093214    0.154328967295
     19   S      56            23.8088661    0.535328142282
     19   S      57             6.4436083    0.444634542185

     20   L      58             5.0331513   -0.099967229187    0.155916274999
     20   L      59             1.1695961    0.399512826089    0.607683718598
     20   L      60             0.3803890    0.700115468880    0.391957393099

 H         

     21   S      61             3.4252509    0.154328967295
     21   S      62             0.6239137    0.535328142282
     21   S      63             0.1688554    0.444634542185

 H         

     22   S      64             3.4252509    0.154328967295
     22   S      65             0.6239137    0.535328142282
     22   S      66             0.1688554    0.444634542185

 H         

     23   S      67             3.4252509    0.154328967295
     23   S      68             0.6239137    0.535328142282
     23   S      69             0.1688554    0.444634542185

 H         

     24   S      70             3.4252509    0.154328967295
     24   S      71             0.6239137    0.535328142282
     24   S      72             0.1688554    0.444634542185

 H         

     25   S      73             3.4252509    0.154328967295
     25   S      74             0.6239137    0.535328142282
     25   S      75             0.1688554    0.444634542185

 H         

     26   S      76             3.4252509    0.154328967295
     26   S      77             0.6239137    0.535328142282
     26   S      78             0.1688554    0.444634542185

 H         

     27   S      79             3.4252509    0.154328967295
     27   S      80             0.6239137    0.535328142282
     27   S      81             0.1688554    0.444634542185

 H         

     28   S      82             3.4252509    0.154328967295
     28   S      83             0.6239137    0.535328142282
     28   S      84             0.1688554    0.444634542185

 H         

     29   S      85             3.4252509    0.154328967295
     29   S      86             0.6239137    0.535328142282
     29   S      87             0.1688554    0.444634542185

 H         

     30   S      88             3.4252509    0.154328967295
     30   S      89             0.6239137    0.535328142282
     30   S      90             0.1688554    0.444634542185

 TOTAL NUMBER OF BASIS SET SHELLS             =   30
 NUMBER OF CARTESIAN GAUSSIAN BASIS FUNCTIONS =   60
 NUMBER OF ELECTRONS                          =   72
 CHARGE OF MOLECULE                           =    0
 SPIN MULTIPLICITY                            =    1
 NUMBER OF OCCUPIED ORBITALS (ALPHA)          =   36
 NUMBER OF OCCUPIED ORBITALS (BETA )          =   36
 TOTAL NUMBER OF ATOMS                        =   20
 THE NUCLEAR REPULSION ENERGY IS      509.6731970742

     $CONTRL OPTIONS
     ---------------
 SCFTYP=RHF          RUNTYP=SADPOINT     EXETYP=RUN     
 MPLEVL=       0     CITYP =NONE         CCTYP =NONE         VBTYP =NONE    
 DFTTYP=NONE         TDDFT =NONE    
 MULT  =       1     ICHARG=       0     NZVAR =       0     COORD =UNIQUE  
 PP    =NONE         RELWFN=NONE         LOCAL =NONE         NUMGRD=       F
 ISPHER=      -1     NOSYM =       0     MAXIT =      30     UNITS =ANGS    
 PLTORB=       F     MOLPLT=       F     AIMPAC=       F     FRIEND=        
 NPRINT=       7     IREST =       0     GEOM  =INPUT   
 NORMF =       0     NORMP =       0     ITOL  =      20     ICUT  =       9
 INTTYP=BEST         GRDTYP=BEST         QMTTOL= 1.0E-06

     $SYSTEM OPTIONS
     ---------------
  REPLICATED MEMORY=     1000000 WORDS (ON EVERY NODE).
 DISTRIBUTED MEMDDI=           0 MILLION WORDS IN AGGREGATE,
 MEMDDI DISTRIBUTED OVER   1 PROCESSORS IS           0 WORDS/PROCESSOR.
 TOTAL MEMORY REQUESTED ON EACH PROCESSOR=     1000000 WORDS.
 TIMLIM=      525600.00 MINUTES, OR     365.0 DAYS.
 PARALL= F  BALTYP=  DLB     KDIAG=    0  COREFL= F
 MXSEQ2=     300 MXSEQ3=     150  mem10=         0

          ----------------
          PROPERTIES INPUT
          ----------------

     MOMENTS            FIELD           POTENTIAL          DENSITY
 IEMOM =       1   IEFLD =       0   IEPOT =       0   IEDEN =       0
 WHERE =COMASS     WHERE =NUCLEI     WHERE =NUCLEI     WHERE =NUCLEI  
 OUTPUT=BOTH       OUTPUT=BOTH       OUTPUT=BOTH       OUTPUT=BOTH    
 IEMINT=       0   IEFINT=       0                     IEDINT=       0
                                                       MORB  =       0
          EXTRAPOLATION IN EFFECT
          SOSCF IN EFFECT
 ORBITAL PRINTING OPTION: NPREO=     1    60     2     1

     -------------------------------
     INTEGRAL TRANSFORMATION OPTIONS
     -------------------------------
     NWORD  =            0
     CUTOFF = 1.0E-09     MPTRAN =       0
     DIRTRF =       F     AOINTS =DUP     

          ----------------------
          INTEGRAL INPUT OPTIONS
          ----------------------
 NOPK  =       1 NORDER=       0 SCHWRZ=       T

     ------------------------------------------
     THE POINT GROUP IS C1 , NAXIS= 0, ORDER= 1
     ------------------------------------------

     DIMENSIONS OF THE SYMMETRY SUBSPACES ARE
 A   =   60

 ..... DONE SETTING UP THE RUN .....
 STEP CPU TIME =     0.04 TOTAL CPU TIME =          0.0 (      0.0 MIN)
 TOTAL WALL CLOCK TIME=          0.1 SECONDS, CPU UTILIZATION IS    66.67%


          -----------------------------
          STATIONARY POINT LOCATION RUN
          -----------------------------

 OBTAINING INITIAL HESSIAN, HESS=CALC    

     ---------------------------------
     HESSIAN MATRIX CONTROL PARAMETERS
     ---------------------------------
     METHOD=ANALYTIC   NVIB  =       2   VIBSIZ= 0.01000
     RDHESS=       F   PURIFY=       F   PRTIFC=       F
     VIBANL=       F   DECOMP=       F   PROJCT=       F
     SCLFAC= 1.00000   PRTSCN=       F   NPRT  =       0
     PULCOR=       F   NPUN  =       0   REDOVB=       T
     HSSTYP=GENERAL 
 Old integral subroutine is used

     ------------------------------
     CPHF RESPONSE SOLUTION OPTIONS
     ------------------------------
     POLAR  =       F     NWORD  =       0
     CPHF   =AO      

          ********************
          1 ELECTRON INTEGRALS
          ********************
 ...... END OF ONE-ELECTRON INTEGRALS ......
 STEP CPU TIME =     0.02 TOTAL CPU TIME =          0.1 (      0.0 MIN)
 TOTAL WALL CLOCK TIME=          0.1 SECONDS, CPU UTILIZATION IS    75.00%

          -------------
          GUESS OPTIONS
          -------------
          GUESS =HUCKEL            NORB  =       0          NORDER=       0
          MIX   =       F          PRTMO =       F          PUNMO =       F
          TOLZ  = 1.0E-08          TOLE  = 1.0E-05
          SYMDEN=       F          PURIFY=       F

 INITIAL GUESS ORBITALS GENERATED BY HUCKEL   ROUTINE.
 HUCKEL GUESS REQUIRES     53820 WORDS.

 SYMMETRIES FOR INITIAL GUESS ORBITALS FOLLOW.   BOTH SET(S).
    36 ORBITALS ARE OCCUPIED (   10 CORE ORBITALS).
    11=A       12=A       13=A       14=A       15=A       16=A       17=A   
    18=A       19=A       20=A       21=A       22=A       23=A       24=A   
    25=A       26=A       27=A       28=A       29=A       30=A       31=A   
    32=A       33=A       34=A       35=A       36=A       37=A       38=A   
    39=A       40=A       41=A       42=A       43=A       44=A       45=A   
    46=A   
 ...... END OF INITIAL ORBITAL SELECTION ......
 STEP CPU TIME =     0.02 TOTAL CPU TIME =          0.1 (      0.0 MIN)
 TOTAL WALL CLOCK TIME=          0.1 SECONDS, CPU UTILIZATION IS    80.00%

                    ----------------------
                    AO INTEGRAL TECHNOLOGY
                    ----------------------
     S,P,L SHELL ROTATED AXIS INTEGRALS, REPROGRAMMED BY
        KAZUYA ISHIMURA (IMS) AND JOSE SIERRA (SYNSTAR).
     S,P,D,L SHELL ROTATED AXIS INTEGRALS PROGRAMMED BY
        KAZUYA ISHIMURA (INSTITUTE FOR MOLECULAR SCIENCE).
     S,P,D,F,G SHELL TO TOTAL QUARTET ANGULAR MOMENTUM SUM 5,
        ERIC PROGRAM BY GRAHAM FLETCHER (ELORET AND NASA ADVANCED
        SUPERCOMPUTING DIVISION, AMES RESEARCH CENTER).
     S,P,D,F,G,L SHELL GENERAL RYS QUADRATURE PROGRAMMED BY
        MICHEL DUPUIS (PACIFIC NORTHWEST NATIONAL LABORATORY).

          --------------------
          2 ELECTRON INTEGRALS
          --------------------

 THE -PK- OPTION IS OFF, THE INTEGRALS ARE NOT IN SUPERMATRIX FORM.
 STORING   15000 INTEGRALS/RECORD ON DISK, USING 12 BYTES/INTEGRAL.
 TWO ELECTRON INTEGRAL EVALUATION REQUIRES   89821 WORDS OF MEMORY.
 SCHWARZ INEQUALITY OVERHEAD:      1797 INTEGRALS, T=        0.00
 II,JST,KST,LST =  1  1  1  1 NREC =         1 INTLOC =    1
 II,JST,KST,LST =  2  1  1  1 NREC =         1 INTLOC =    2
 II,JST,KST,LST =  3  1  1  1 NREC =         1 INTLOC =   34
 II,JST,KST,LST =  4  1  1  1 NREC =         1 INTLOC =  143
 II,JST,KST,LST =  5  1  1  1 NREC =         1 INTLOC = 1364
 II,JST,KST,LST =  6  1  1  1 NREC =         1 INTLOC = 1961
 II,JST,KST,LST =  7  1  1  1 NREC =         1 INTLOC = 6864
 II,JST,KST,LST =  8  1  1  1 NREC =         1 INTLOC = 8478
 II,JST,KST,LST =  9  1  1  1 NREC =         2 INTLOC = 5873
 II,JST,KST,LST = 10  1  1  1 NREC =         2 INTLOC = 9652
 II,JST,KST,LST = 11  1  1  1 NREC =         4 INTLOC = 5024
 II,JST,KST,LST = 12  1  1  1 NREC =         4 INTLOC =12125
 II,JST,KST,LST = 13  1  1  1 NREC =         7 INTLOC =12209
 II,JST,KST,LST = 14  1  1  1 NREC =         8 INTLOC = 8645
 II,JST,KST,LST = 15  1  1  1 NREC =        13 INTLOC = 6192
 II,JST,KST,LST = 16  1  1  1 NREC =        14 INTLOC = 8844
 II,JST,KST,LST = 17  1  1  1 NREC =        21 INTLOC =13110
 II,JST,KST,LST = 18  1  1  1 NREC =        23 INTLOC = 9272
 II,JST,KST,LST = 19  1  1  1 NREC =        34 INTLOC = 2376
 II,JST,KST,LST = 20  1  1  1 NREC =        35 INTLOC =13678
 II,JST,KST,LST = 21  1  1  1 NREC =        48 INTLOC = 3313
 II,JST,KST,LST = 22  1  1  1 NREC =        51 INTLOC =14143
 II,JST,KST,LST = 23  1  1  1 NREC =        56 INTLOC = 3365
 II,JST,KST,LST = 24  1  1  1 NREC =        60 INTLOC = 7745
 II,JST,KST,LST = 25  1  1  1 NREC =        65 INTLOC = 6820
 II,JST,KST,LST = 26  1  1  1 NREC =        70 INTLOC = 7754
 II,JST,KST,LST = 27  1  1  1 NREC =        75 INTLOC =14694
 II,JST,KST,LST = 28  1  1  1 NREC =        81 INTLOC =10114
 II,JST,KST,LST = 29  1  1  1 NREC =        87 INTLOC = 8525
 II,JST,KST,LST = 30  1  1  1 NREC =        93 INTLOC =11466
 SCHWARZ INEQUALITY TEST SKIPPED       24287 INTEGRAL BLOCKS.
 TOTAL NUMBER OF NONZERO TWO-ELECTRON INTEGRALS =             1489405
        100 INTEGRAL RECORDS WERE STORED ON DISK FILE  8.
  ...... END OF TWO-ELECTRON INTEGRALS .....
 STEP CPU TIME =     0.31 TOTAL CPU TIME =          0.4 (      0.0 MIN)
 TOTAL WALL CLOCK TIME=          0.4 SECONDS, CPU UTILIZATION IS    97.50%

          --------------------------
                 RHF SCF CALCULATION
          --------------------------

     NUCLEAR ENERGY =       509.6731970742
     MAXIT =   30     NPUNCH=    2
     EXTRAP=T  DAMP=F  SHIFT=F  RSTRCT=F  DIIS=F  DEM=F  SOSCF=T
     DENSITY MATRIX CONV=  1.00E-05
     SOSCF WILL OPTIMIZE     864 ORBITAL ROTATIONS, SOGTOL=   0.250
     MEMORY REQUIRED FOR RHF ITERS=     59496 WORDS.

 ITER EX DEM     TOTAL ENERGY        E CHANGE  DENSITY CHANGE     ORB. GRAD
   1  0  0     -415.5233189762  -415.5233189762   0.524937406   0.000000000
          ---------------START SECOND ORDER SCF---------------
   2  1  0     -416.0288474801    -0.5055285039   0.244475276   0.064719929
   3  2  0     -416.0582523139    -0.0294048338   0.116134365   0.049268431
   4  3  0     -416.0921771814    -0.0339248676   0.017533073   0.007298156
   5  4  0     -416.0930434479    -0.0008662664   0.004207237   0.002938835
   6  5  0     -416.0931515205    -0.0001080726   0.001897892   0.000763331
   7  6  0     -416.0931640581    -0.0000125376   0.000563136   0.000261645
   8  7  0     -416.0931659123    -0.0000018542   0.000203292   0.000073022
   9  8  0     -416.0931660898    -0.0000001775   0.000102904   0.000023570
  10  9  0     -416.0931661216    -0.0000000318   0.000048864   0.000011427
  11 10  0     -416.0931661267    -0.0000000051   0.000026247   0.000003473
  12 11  0     -416.0931661276    -0.0000000010   0.000008797   0.000001377
  13 12  0     -416.0931661277    -0.0000000001   0.000004815   0.000000512

          -----------------
          DENSITY CONVERGED
          -----------------
     TIME TO FORM FOCK OPERATORS=       0.3 SECONDS (       0.0 SEC/ITER)
     TIME TO SOLVE SCF EQUATIONS=       0.1 SECONDS (       0.0 SEC/ITER)

 FINAL RHF ENERGY IS     -416.0931661277 AFTER  13 ITERATIONS

          ------------
          EIGENVECTORS
          ------------

                      1          2          3          4          5
                  -20.2612   -11.1181   -11.0543   -11.0493   -11.0456
                     A          A          A          A          A   
    1  C  1  S   -0.000000   0.000023  -0.030497  -0.005702  -0.085245
    2  C  1  S    0.000003  -0.000004  -0.003830   0.000016  -0.002992
    3  C  1  X    0.000001   0.000007  -0.001788  -0.000144   0.000118
    4  C  1  Y   -0.000002   0.000013   0.000153   0.000009  -0.000114
    5  C  1  Z   -0.000001   0.000003  -0.001694  -0.000273  -0.000030
    6  C  2  S   -0.000000   0.000015  -0.000572   0.000062   0.003853
    7  C  2  S    0.000010  -0.000030   0.000351   0.000059  -0.006044
    8  C  2  X   -0.000007   0.000057   0.000226   0.000044   0.001123
    9  C  2  Y    0.000001  -0.000001   0.000005   0.000037  -0.003009
   10  C  2  Z    0.000007  -0.000026  -0.000093   0.000019  -0.003313
   11  C  3  S   -0.000005  -0.000222  -0.000699   0.000652   0.958593
   12  C  3  S   -0.000000   0.000304  -0.000021   0.000046   0.035525
   13  C  3  X    0.000020  -0.000184  -0.000075  -0.000002  -0.000288
   14  C  3  Y    0.000018   0.000050   0.000008   0.000020  -0.000173
   15  C  3  Z    0.000038  -0.000191   0.000016   0.000018  -0.000934
   16  C  4  S   -0.000024  -0.001607  -0.004048  -0.005412  -0.240449
   17  C  4  S    0.000270  -0.005398  -0.000068  -0.000229  -0.011280
   18  C  4  X   -0.000190  -0.001509  -0.000052  -0.000121   0.001396
   19  C  4  Y    0.000260  -0.003739  -0.000057  -0.000044  -0.000059
   20  C  4  Z    0.000353  -0.000015   0.000174   0.000121   0.001493
   21  C  5  S    0.000004  -0.000277   0.003949  -0.001148  -0.002009
   22  C  5  S    0.000033   0.000070  -0.006881  -0.000015   0.001796
   23  C  5  X   -0.000061  -0.000020  -0.002193  -0.000111  -0.000682
   24  C  5  Y   -0.000035  -0.000013  -0.000698  -0.000083   0.000890
   25  C  5  Z    0.000015  -0.000015   0.003944   0.000038   0.000453
   26  C  6  S    0.000003  -0.000254   0.991336   0.024232  -0.003070
   27  C  6  S    0.000007  -0.000064   0.036233  -0.004858   0.000114
   28  C  6  X    0.000024   0.000005   0.000726  -0.001608  -0.000134
   29  C  6  Y   -0.000029  -0.000097   0.000199  -0.003816   0.000007
   30  C  6  Z   -0.000018  -0.000051   0.001575   0.000288  -0.000129
   31  C  7  S    0.000005  -0.000272  -0.023436   0.991729  -0.002397
   32  C  7  S    0.000054   0.000111  -0.006871   0.035857  -0.000058
   33  C  7  X    0.000037  -0.000056   0.001641  -0.000525  -0.000033
   34  C  7  Y    0.000065  -0.000061   0.003937   0.001308  -0.000018
   35  C  7  Z   -0.000016   0.000035  -0.000665   0.000903   0.000031
   36  C  8  S   -0.000025  -0.001005  -0.001146   0.019707   0.000524
   37  C  8  S    0.000270  -0.005689   0.000345  -0.007398   0.000039
   38  C  8  X   -0.000054   0.002865  -0.000005  -0.001293  -0.000048
   39  C  8  Y    0.000453   0.000282  -0.000185   0.003493   0.000001
   40  C  8  Z    0.000235  -0.002953  -0.000006   0.002643  -0.000024
   41  C  9  S    0.000548   0.992564   0.000267   0.000342  -0.000396
   42  C  9  S   -0.007195   0.032729  -0.000008   0.000149   0.001521
   43  C  9  X    0.001891  -0.000102  -0.000063  -0.000033  -0.000412
   44  C  9  Y   -0.004737   0.000401   0.000060   0.000126  -0.000997
   45  C  9  Z   -0.003837   0.000101   0.000114   0.000079   0.000092
   46  O 10  S    0.994267   0.000162   0.000005   0.000013  -0.000003
   47  O 10  S    0.025993  -0.005790  -0.000052  -0.000115  -0.000031
   48  O 10  X    0.001656  -0.000513  -0.000008  -0.000030  -0.000008
   49  O 10  Y   -0.004160   0.001267   0.000029   0.000034   0.000042
   50  O 10  Z   -0.003382   0.001054   0.000015   0.000046  -0.000029
   51  H 11  S   -0.000002   0.000002   0.000358  -0.000012   0.000496
   52  H 12  S   -0.000002   0.000006   0.000363  -0.000951   0.000564
   53  H 13  S   -0.000002   0.000006  -0.000001   0.000001   0.000038
   54  H 14  S    0.000080  -0.001059   0.000005  -0.000042  -0.006736
   55  H 15  S   -0.000006  -0.000035  -0.000017  -0.000014  -0.006696
   56  H 16  S   -0.000179  -0.000014  -0.000090  -0.000023   0.001822
   57  H 17  S   -0.000020  -0.000052   0.000080  -0.000080  -0.000014
   58  H 18  S   -0.000016  -0.000026  -0.006924  -0.000128   0.000018
   59  H 19  S   -0.000021  -0.000038   0.000241  -0.006826   0.000025
   60  H 20  S   -0.000192   0.000012  -0.000037   0.000011   0.000014

                      6          7          8          9         10
                  -11.0452   -11.0444   -11.0258   -11.0184   -11.0121
                     A          A          A          A          A   
    1  C  1  S    0.987881   0.016849  -0.000217   0.000974  -0.003463
    2  C  1  S    0.035878   0.000647   0.000047   0.000289  -0.007235
    3  C  1  X   -0.001517  -0.000053   0.000026  -0.000046   0.003868
    4  C  1  Y    0.000292  -0.000041   0.000033   0.000051   0.000154
    5  C  1  Z   -0.000651  -0.000090  -0.000035  -0.000066  -0.002559
    6  C  2  S    0.004585   0.000521   0.000105  -0.018458   0.991933
    7  C  2  S   -0.007347  -0.001675   0.000028  -0.001165   0.036727
    8  C  2  X   -0.003709   0.000147   0.000006  -0.000495   0.001968
    9  C  2  Y   -0.000374  -0.000708  -0.000004   0.000147  -0.000015
   10  C  2  Z    0.002204  -0.000651   0.000007  -0.000484   0.001616
   11  C  3  S    0.078605   0.243613  -0.000271   0.000891  -0.003418
   12  C  3  S    0.003073   0.006229   0.000087   0.000298  -0.007232
   13  C  3  X   -0.000130  -0.001999  -0.000016  -0.000050  -0.000873
   14  C  3  Y   -0.000036   0.000312   0.000079   0.000025   0.003203
   15  C  3  Z   -0.000009  -0.001950   0.000009  -0.000047   0.003240
   16  C  4  S   -0.037300   0.961820   0.001491  -0.004612   0.000545
   17  C  4  S   -0.001537   0.034100   0.000248  -0.007296   0.000019
   18  C  4  X    0.000094   0.001949   0.000009  -0.002536  -0.000048
   19  C  4  Y   -0.000016  -0.000715   0.000004   0.003427   0.000118
   20  C  4  Z    0.000164   0.001000   0.000066   0.001743   0.000100
   21  C  5  S   -0.001017   0.005027  -0.004281   0.991918   0.018698
   22  C  5  S    0.000150  -0.006689  -0.000268   0.036682   0.000198
   23  C  5  X   -0.000126   0.002444  -0.000074  -0.001563   0.000480
   24  C  5  Y    0.000129  -0.003233  -0.000208   0.000902   0.000009
   25  C  5  Z    0.000099  -0.001717   0.000029  -0.001680   0.000392
   26  C  6  S    0.031291   0.004833   0.000710  -0.003138   0.000405
   27  C  6  S   -0.001560   0.000170   0.000406  -0.007218   0.000020
   28  C  6  X    0.001906   0.000173   0.000129   0.002186   0.000114
   29  C  6  Y   -0.000131  -0.000177   0.000082   0.000778  -0.000003
   30  C  6  Z    0.001685   0.000010  -0.000046  -0.003970  -0.000110
   31  C  7  S    0.004720   0.005149  -0.019189   0.001213  -0.000076
   32  C  7  S    0.000131   0.000116  -0.008919   0.000147   0.000008
   33  C  7  X   -0.000001   0.000139   0.001318   0.000017  -0.000041
   34  C  7  Y    0.000050   0.000025  -0.003602  -0.000032   0.000020
   35  C  7  Z   -0.000063  -0.000103  -0.002726  -0.000178  -0.000009
   36  C  8  S    0.000344  -0.001221   0.991968   0.004376  -0.000031
   37  C  8  S    0.000019   0.000065   0.036541   0.000092  -0.000014
   38  C  8  X   -0.000016   0.000014   0.000479   0.000028  -0.000001
   39  C  8  Y    0.000001   0.000038  -0.001567   0.000178   0.000004
   40  C  8  Z   -0.000020   0.000028  -0.000967  -0.000085  -0.000000
   41  C  9  S   -0.000095   0.002579   0.001994   0.000339  -0.000013
   42  C  9  S    0.000237  -0.005468  -0.005878   0.000129  -0.000010
   43  C  9  X   -0.000067   0.001482  -0.002952  -0.000152  -0.000005
   44  C  9  Y   -0.000153   0.003772  -0.000448   0.000057   0.000008
   45  C  9  Z    0.000014  -0.000365   0.002936   0.000029  -0.000049
   46  O 10  S    0.000001  -0.000022  -0.000022   0.000009   0.000000
   47  O 10  S   -0.000010   0.000244   0.000249  -0.000084   0.000005
   48  O 10  X   -0.000002  -0.000068   0.000155   0.000017   0.000007
   49  O 10  Y    0.000011  -0.000218   0.000009   0.000037  -0.000004
   50  O 10  Z   -0.000004   0.000015  -0.000159   0.000032   0.000002
   51  H 11  S   -0.006893  -0.000160  -0.000010  -0.000031   0.000107
   52  H 12  S   -0.006911  -0.000131  -0.000105  -0.000057   0.000014
   53  H 13  S    0.000051   0.000009  -0.000004   0.000141  -0.007002
   54  H 14  S   -0.000603  -0.001567  -0.000210  -0.000044   0.000020
   55  H 15  S   -0.000658  -0.001565  -0.000018  -0.000040   0.000105
   56  H 16  S    0.000253  -0.006695  -0.000099   0.000120  -0.000032
   57  H 17  S   -0.000001   0.000068  -0.000031  -0.006920  -0.000118
   58  H 18  S   -0.000085  -0.000155  -0.000094   0.000106  -0.000042
   59  H 19  S    0.000012  -0.000092   0.000266  -0.000106  -0.000003
   60  H 20  S   -0.000001  -0.000067  -0.006868  -0.000089   0.000001

                     11         12         13         14         15
                   -1.3129    -1.0917    -1.0182    -0.9718    -0.9334
                     A          A          A          A          A   
    1  C  1  S   -0.000703  -0.056420  -0.102733   0.069565  -0.076338
    2  C  1  S    0.001711   0.149971   0.276467  -0.191480   0.219026
    3  C  1  X   -0.000039  -0.009309  -0.074572   0.034257   0.026168
    4  C  1  Y    0.000190   0.004428   0.001860  -0.007812  -0.008090
    5  C  1  Z    0.000493   0.027451   0.034411  -0.005793   0.000773
    6  C  2  S   -0.001044  -0.058415  -0.147815   0.066227   0.012172
    7  C  2  S    0.002309   0.145764   0.383134  -0.175425  -0.032716
    8  C  2  X    0.000405   0.028029   0.043960  -0.029702   0.055865
    9  C  2  Y    0.000606   0.015650   0.037393  -0.007220  -0.040878
   10  C  2  Z    0.000782   0.011816   0.023878   0.016898  -0.068958
   11  C  3  S   -0.003134  -0.051108  -0.114864   0.018430   0.091591
   12  C  3  S    0.007674   0.135745   0.310169  -0.047034  -0.260637
   13  C  3  X    0.002064   0.019739   0.011371   0.011151  -0.000945
   14  C  3  Y    0.001126  -0.017538  -0.047852   0.017441  -0.003930
   15  C  3  Z    0.001240  -0.013185  -0.060203   0.048182  -0.006120
   16  C  4  S   -0.021440  -0.087686  -0.008640  -0.125943   0.084098
   17  C  4  S    0.053622   0.230028   0.026266   0.348116  -0.241667
   18  C  4  X    0.010912   0.040084  -0.030220   0.049408   0.008664
   19  C  4  Y    0.024958  -0.022227  -0.007544  -0.055685  -0.055524
   20  C  4  Z   -0.000684  -0.033894  -0.008970  -0.008742  -0.006113
   21  C  5  S   -0.005571  -0.108609   0.008434  -0.128280  -0.047929
   22  C  5  S    0.012750   0.273119  -0.021867   0.342548   0.130772
   23  C  5  X   -0.002033  -0.005092  -0.022854  -0.044628   0.066826
   24  C  5  Y    0.005480   0.051797  -0.007796   0.049003  -0.041677
   25  C  5  Z    0.000793  -0.040505   0.008550   0.014591  -0.098532
   26  C  6  S   -0.003225  -0.112726   0.031044  -0.020115  -0.131097
   27  C  6  S    0.007685   0.296994  -0.082818   0.051492   0.372709
   28  C  6  X   -0.000581  -0.015975  -0.034676  -0.044809  -0.001803
   29  C  6  Y    0.002065   0.034234  -0.037889  -0.056160  -0.023791
   30  C  6  Z    0.001977   0.043100  -0.016964   0.083049   0.012105
   31  C  7  S   -0.006025  -0.103316   0.093465   0.105314  -0.008337
   32  C  7  S    0.014334   0.263300  -0.245731  -0.283104   0.026811
   33  C  7  X   -0.003109  -0.040043   0.018479   0.010238  -0.003162
   34  C  7  Y    0.003924  -0.004512  -0.036851  -0.073918  -0.122990
   35  C  7  Z    0.004651   0.037983  -0.040900  -0.027004  -0.043153
   36  C  8  S   -0.021743  -0.081432   0.091463   0.105531   0.086812
   37  C  8  S    0.052869   0.204541  -0.237299  -0.279864  -0.235751
   38  C  8  X   -0.019599  -0.000857  -0.011585  -0.029686   0.024343
   39  C  8  Y   -0.003905  -0.059404   0.051789   0.043971   0.007876
   40  C  8  Z    0.019155  -0.021942   0.026904   0.052369  -0.020689
   41  C  9  S   -0.127581  -0.035759   0.022139  -0.008441   0.070168
   42  C  9  S    0.295700   0.099328  -0.063440   0.023619  -0.207168
   43  C  9  X   -0.046252   0.023966  -0.044659  -0.058748  -0.027677
   44  C  9  Y    0.113980  -0.069507   0.009101  -0.076715   0.091537
   45  C  9  Z    0.092028  -0.054853   0.041633   0.038536   0.076730
   46  O 10  S   -0.214497   0.038238  -0.015263   0.006392  -0.049562
   47  O 10  S    0.749419  -0.142706   0.058504  -0.024990   0.198095
   48  O 10  X    0.048692  -0.002831  -0.008111  -0.015079  -0.003376
   49  O 10  Y   -0.123032   0.004355  -0.003856  -0.017946   0.019171
   50  O 10  Z   -0.100305   0.004328   0.003956   0.011352   0.015428
   51  H 11  S    0.000185   0.028694   0.060133  -0.048129   0.070690
   52  H 12  S    0.000422   0.037076   0.059979  -0.057592   0.064819
   53  H 13  S    0.000306   0.028997   0.087658  -0.042347  -0.008030
   54  H 14  S    0.003456   0.031876   0.071639  -0.011800  -0.082289
   55  H 15  S    0.001284   0.025217   0.068217  -0.006579  -0.078881
   56  H 16  S    0.008816   0.040036   0.010973   0.089828  -0.070811
   57  H 17  S    0.001521   0.051064  -0.000181   0.088612   0.040570
   58  H 18  S    0.000820   0.055681  -0.016067   0.008966   0.119133
   59  H 19  S    0.001621   0.049411  -0.055414  -0.078124   0.014406
   60  H 20  S    0.008802   0.035058  -0.052353  -0.075068  -0.064690

                     16         17         18         19         20
                   -0.8550    -0.7742    -0.7531    -0.7105    -0.6556
                     A          A          A          A          A   
    1  C  1  S   -0.132744   0.035948  -0.009403   0.068967   0.004019
    2  C  1  S    0.385036  -0.111695   0.033968  -0.220746  -0.011402
    3  C  1  X   -0.031248  -0.068986   0.070388  -0.127674   0.035944
    4  C  1  Y   -0.011079  -0.034919   0.012436  -0.068801  -0.133950
    5  C  1  Z   -0.045952   0.057830  -0.017495   0.132992  -0.048113
    6  C  2  S   -0.000761  -0.055339   0.046542  -0.115119  -0.004076
    7  C  2  S    0.002081   0.165221  -0.140842   0.355054   0.015591
    8  C  2  X    0.113808  -0.024451   0.005860  -0.052658  -0.065810
    9  C  2  Y   -0.073202  -0.030913   0.051758  -0.137064  -0.119972
   10  C  2  Z   -0.139944   0.020829   0.006654   0.028652   0.013159
   11  C  3  S    0.132123   0.014093  -0.036899   0.067775   0.001452
   12  C  3  S   -0.383364  -0.048101   0.114151  -0.217304  -0.003252
   13  C  3  X    0.051273  -0.006791  -0.010173   0.038393  -0.087032
   14  C  3  Y   -0.003194  -0.067683   0.089036  -0.169802  -0.044849
   15  C  3  Z    0.016753  -0.062441   0.016002  -0.076944   0.092975
   16  C  4  S   -0.062512   0.081793   0.041386  -0.015603  -0.028200
   17  C  4  S    0.180612  -0.253412  -0.121205   0.049817   0.097393
   18  C  4  X    0.053142   0.058236   0.013627   0.047298  -0.139164
   19  C  4  Y    0.028755  -0.102580   0.190330   0.112835   0.012405
   20  C  4  Z    0.032645  -0.080771  -0.046739   0.024384   0.179586
   21  C  5  S    0.006545  -0.095485   0.057772   0.047487   0.026673
   22  C  5  S   -0.018827   0.283233  -0.175332  -0.145297  -0.080791
   23  C  5  X   -0.052943   0.026322   0.111312   0.055379  -0.004384
   24  C  5  Y    0.036703  -0.085876   0.015625   0.078331  -0.156341
   25  C  5  Z    0.067523  -0.051477  -0.129394  -0.024477   0.047992
   26  C  6  S    0.071515   0.007700  -0.084262  -0.031719  -0.032987
   27  C  6  S   -0.206936  -0.029001   0.259976   0.098713   0.110886
   28  C  6  X   -0.057432  -0.094420   0.023993   0.073186   0.133547
   29  C  6  Y   -0.008541  -0.108936  -0.056881   0.051216  -0.220258
   30  C  6  Z   -0.026196   0.139052  -0.021824  -0.004817  -0.143613
   31  C  7  S    0.052008   0.081134   0.082630  -0.019664   0.026251
   32  C  7  S   -0.151059  -0.246685  -0.244752   0.062688  -0.080054
   33  C  7  X   -0.015084  -0.035392  -0.084211  -0.003207   0.128468
   34  C  7  Y    0.063334   0.097312  -0.139228  -0.106162   0.005219
   35  C  7  Z    0.021399   0.096658   0.036127   0.005832  -0.104834
   36  C  8  S   -0.036958  -0.088602  -0.001484   0.039498  -0.032414
   37  C  8  S    0.106537   0.263455   0.016033  -0.118980   0.113909
   38  C  8  X   -0.043391  -0.023010  -0.157099  -0.049113   0.061903
   39  C  8  Y    0.022372   0.092498   0.041434  -0.079820   0.212459
   40  C  8  Z    0.052348   0.069568   0.172236   0.050134   0.035024
   41  C  9  S   -0.062140  -0.000507  -0.107368  -0.051608  -0.014040
   42  C  9  S    0.189392   0.001171   0.343326   0.167566   0.044896
   43  C  9  X    0.031887   0.147804   0.055848  -0.017601   0.001539
   44  C  9  Y   -0.074905   0.129493  -0.041059  -0.096017   0.046292
   45  C  9  Z   -0.043223  -0.091563  -0.108777   0.023340   0.036305
   46  O 10  S    0.036102  -0.001264   0.058954   0.023324   0.029164
   47  O 10  S   -0.149811   0.005726  -0.258964  -0.104720  -0.139346
   48  O 10  X    0.014175   0.072656   0.045001  -0.001987   0.036212
   49  O 10  Y   -0.029243   0.066945  -0.061754  -0.078388  -0.058690
   50  O 10  Z   -0.017413  -0.044166  -0.089480  -0.003629  -0.048859
   51  H 11  S    0.143532  -0.053856   0.022809  -0.121298   0.100454
   52  H 12  S    0.122399  -0.091282   0.032257  -0.183324  -0.074227
   53  H 13  S    0.000497   0.085899  -0.083313   0.236778   0.105181
   54  H 14  S   -0.119933  -0.049999   0.100627  -0.174452  -0.063081
   55  H 15  S   -0.142609  -0.032273   0.045639  -0.121647   0.094375
   56  H 16  S    0.054682  -0.139330  -0.095841   0.001015   0.195697
   57  H 17  S   -0.009148   0.143516  -0.110927  -0.115460   0.078715
   58  H 18  S   -0.075637  -0.027041   0.138637   0.039371   0.260303
   59  H 19  S   -0.060628  -0.142222  -0.155831   0.013161   0.080781
   60  H 20  S    0.034305   0.139455  -0.022083  -0.111474   0.195625

                     21         22         23         24         25
                   -0.6060    -0.5917    -0.5868    -0.5546    -0.5419
                     A          A          A          A          A   
    1  C  1  S   -0.015522  -0.007150  -0.001085   0.000319   0.004292
    2  C  1  S    0.055526   0.020211  -0.001525  -0.002840  -0.022792
    3  C  1  X    0.090978  -0.006719  -0.119436  -0.057153  -0.160577
    4  C  1  Y   -0.222950  -0.082193  -0.102335  -0.246425  -0.177995
    5  C  1  Z   -0.160363  -0.113386   0.073284   0.034233   0.078902
    6  C  2  S    0.027093   0.005960  -0.004762   0.012581  -0.007377
    7  C  2  S   -0.083024  -0.016317   0.014700  -0.041395   0.023909
    8  C  2  X   -0.127767  -0.070768   0.103574   0.080008   0.124143
    9  C  2  Y   -0.216514  -0.075811  -0.014020  -0.114371  -0.045391
   10  C  2  Z    0.002310  -0.049606  -0.102106  -0.066788  -0.151356
   11  C  3  S   -0.014167  -0.009103   0.004542  -0.004194   0.001654
   12  C  3  S    0.051135   0.029063  -0.011905   0.023735  -0.001147
   13  C  3  X   -0.215766  -0.093955   0.086254   0.075499   0.107278
   14  C  3  Y   -0.028263   0.077799   0.171119   0.164821   0.252891
   15  C  3  Z    0.210528   0.028865  -0.019157   0.061411  -0.027907
   16  C  4  S    0.001464   0.054914   0.012193  -0.020983  -0.006497
   17  C  4  S   -0.007503  -0.185646  -0.036647   0.072027   0.021588
   18  C  4  X    0.004483   0.105077  -0.051015   0.113381  -0.086585
   19  C  4  Y   -0.011070   0.087340   0.237722  -0.038343  -0.116412
   20  C  4  Z   -0.012727  -0.066686   0.037984  -0.229228   0.087746
   21  C  5  S    0.005235  -0.055770   0.000233  -0.009398   0.017436
   22  C  5  S   -0.020172   0.190098   0.000706   0.026124  -0.056492
   23  C  5  X    0.033652   0.014341   0.135741  -0.050595  -0.075001
   24  C  5  Y    0.089192  -0.209105  -0.128668   0.264771  -0.107281
   25  C  5  Z   -0.046038   0.079915  -0.148930  -0.076354   0.159691
   26  C  6  S   -0.003886   0.056286  -0.007234  -0.000610   0.005313
   27  C  6  S    0.011918  -0.196115   0.020000   0.000037  -0.014001
   28  C  6  X   -0.046293   0.009273  -0.072434  -0.070023   0.156577
   29  C  6  Y    0.058926   0.007121  -0.187163   0.023126   0.021827
   30  C  6  Z    0.069130   0.046608   0.124864   0.038298  -0.127517
   31  C  7  S   -0.000733  -0.046259   0.006350   0.007859  -0.019775
   32  C  7  S   -0.008074   0.157012  -0.040361  -0.016218   0.065757
   33  C  7  X   -0.136261   0.140543  -0.005179   0.177378  -0.074922
   34  C  7  Y    0.040295   0.016083   0.238001  -0.057369  -0.077036
   35  C  7  Z    0.188003  -0.127852   0.126354  -0.199813   0.089901
   36  C  8  S   -0.014227   0.049926  -0.020054   0.018411  -0.005403
   37  C  8  S    0.034824  -0.162990   0.053673  -0.052174   0.015887
   38  C  8  X    0.006784  -0.088176   0.150541   0.040068  -0.135917
   39  C  8  Y   -0.162539  -0.133197  -0.086170   0.241014  -0.170716
   40  C  8  Z   -0.041426   0.049298  -0.189221   0.034431   0.078443
   41  C  9  S    0.033248  -0.086018   0.007432   0.011691   0.020777
   42  C  9  S   -0.113898   0.299707  -0.022870  -0.038549  -0.070852
   43  C  9  X    0.021132  -0.021409  -0.237338  -0.032735   0.137915
   44  C  9  Y   -0.054018   0.019688  -0.178833   0.006143   0.074698
   45  C  9  Z   -0.015545   0.025376   0.110956  -0.058414  -0.183017
   46  O 10  S   -0.034089   0.054692  -0.002602  -0.009695  -0.028588
   47  O 10  S    0.167501  -0.269453   0.012588   0.049424   0.148041
   48  O 10  X   -0.049703   0.063534  -0.219821  -0.006850   0.053659
   49  O 10  Y    0.085201  -0.199201  -0.163924   0.095357   0.261657
   50  O 10  Z    0.102551  -0.152288   0.118047  -0.029289  -0.012216
   51  H 11  S    0.248346   0.114459   0.010893   0.134126   0.045034
   52  H 12  S   -0.070920  -0.011133  -0.128247  -0.209630  -0.208448
   53  H 13  S    0.154315   0.069448  -0.028267   0.026801  -0.012858
   54  H 14  S   -0.075605   0.058763   0.148252   0.144887   0.233748
   55  H 15  S    0.255355   0.075390  -0.086567  -0.034757  -0.113000
   56  H 16  S   -0.002036  -0.186758  -0.003467  -0.174484   0.127951
   57  H 17  S   -0.085261   0.263974   0.043201  -0.210061   0.111715
   58  H 18  S   -0.065084  -0.101098   0.049072  -0.052888   0.098178
   59  H 19  S   -0.176778   0.230054  -0.072076   0.212578  -0.076605
   60  H 20  S   -0.086880  -0.209199   0.025311   0.169483  -0.176567

                     26         27         28         29         30
                   -0.5156    -0.5060    -0.4866    -0.4785    -0.4506
                     A          A          A          A          A   
    1  C  1  S    0.010050  -0.008405   0.003794  -0.030589   0.007155
    2  C  1  S   -0.036972   0.017064  -0.017699   0.106790  -0.025490
    3  C  1  X    0.087501  -0.199511  -0.066726  -0.186219   0.086769
    4  C  1  Y    0.011099   0.054534   0.283048  -0.001838  -0.084054
    5  C  1  Z   -0.183594  -0.082016   0.049358   0.217802  -0.153946
    6  C  2  S   -0.009525  -0.017080  -0.007641   0.007273  -0.002192
    7  C  2  S    0.033620   0.060533   0.032989  -0.032391   0.007483
    8  C  2  X   -0.164656  -0.024584  -0.043868   0.283948  -0.111007
    9  C  2  Y    0.105416   0.071394  -0.251271   0.109734   0.091418
   10  C  2  Z    0.086379  -0.223972  -0.174865  -0.085715   0.120429
   11  C  3  S   -0.009840  -0.002882   0.031997  -0.005296  -0.006828
   12  C  3  S    0.026619   0.000505  -0.110509   0.023863   0.022049
   13  C  3  X    0.028575  -0.178240  -0.113864  -0.150548   0.112188
   14  C  3  Y   -0.055820   0.161937   0.181114  -0.170391  -0.072339
   15  C  3  Z   -0.188070  -0.075796   0.178820   0.214399  -0.149081
   16  C  4  S   -0.011528   0.008580   0.001372  -0.000466   0.003665
   17  C  4  S    0.035797  -0.042946  -0.004779   0.008656  -0.004385
   18  C  4  X    0.240306   0.146224  -0.012588  -0.014754  -0.207291
   19  C  4  Y    0.072341  -0.041766   0.136359   0.067158   0.150780
   20  C  4  Z   -0.093082   0.208150   0.013845  -0.026790   0.206433
   21  C  5  S   -0.004805  -0.021111  -0.005593   0.007888  -0.000225
   22  C  5  S    0.018974   0.074322   0.022301  -0.028141   0.000939
   23  C  5  X   -0.000388   0.209202   0.061010   0.018846   0.233094
   24  C  5  Y    0.024810   0.124742  -0.100552  -0.025862  -0.108592
   25  C  5  Z    0.158987   0.078821  -0.013500  -0.086362  -0.250964
   26  C  6  S    0.022073  -0.006618  -0.002824   0.011555  -0.004974
   27  C  6  S   -0.082693   0.013525   0.006788  -0.043245   0.007834
   28  C  6  X    0.175312   0.152299   0.003814  -0.064927  -0.150487
   29  C  6  Y   -0.193629   0.087662   0.067863  -0.162902   0.043206
   30  C  6  Z   -0.097742   0.198839   0.033289   0.024855   0.290256
   31  C  7  S    0.019229   0.000876   0.011858   0.002254  -0.003215
   32  C  7  S   -0.072365   0.001707  -0.030007  -0.011435   0.021389
   33  C  7  X    0.110757   0.106664  -0.020776   0.165534   0.124162
   34  C  7  Y    0.064625  -0.140846  -0.099921   0.106060  -0.039838
   35  C  7  Z   -0.009556   0.115780  -0.131589  -0.056245  -0.096954
   36  C  8  S   -0.010107   0.003956  -0.000975   0.003724   0.011155
   37  C  8  S    0.036163  -0.009174   0.014306  -0.015825  -0.036074
   38  C  8  X    0.012625   0.168388  -0.103937  -0.036102  -0.086206
   39  C  8  Y   -0.044917   0.067223   0.145776  -0.109436   0.031759
   40  C  8  Z    0.054534   0.128111   0.026088   0.105990   0.124379
   41  C  9  S    0.006463   0.008415   0.007585  -0.014745   0.000397
   42  C  9  S   -0.014441  -0.034052  -0.021447   0.057968   0.001196
   43  C  9  X    0.095329   0.175479  -0.065818   0.177212   0.096280
   44  C  9  Y   -0.297924  -0.027852  -0.139213  -0.115858  -0.031863
   45  C  9  Z   -0.071213   0.239207  -0.203419  -0.051709  -0.152295
   46  O 10  S   -0.055817   0.010010  -0.034640  -0.021419  -0.018414
   47  O 10  S    0.297694  -0.053870   0.190405   0.119240   0.105886
   48  O 10  X   -0.119869   0.177099  -0.213989   0.088799   0.037470
   49  O 10  Y    0.202728  -0.113644   0.221689   0.163861   0.274392
   50  O 10  Z    0.319953   0.119306   0.114411   0.138349   0.029452
   51  H 11  S    0.102724  -0.021078  -0.270393  -0.110492   0.166499
   52  H 12  S    0.067771   0.011734   0.217644  -0.091807  -0.010126
   53  H 13  S    0.008029  -0.039233   0.239710  -0.251664  -0.015757
   54  H 14  S    0.006018   0.094234   0.076033  -0.244317   0.002587
   55  H 15  S   -0.109003   0.081574   0.114160   0.277021  -0.157234
   56  H 16  S   -0.181671   0.079694  -0.000212  -0.014163   0.256854
   57  H 17  S    0.030999  -0.085722   0.092948  -0.021925  -0.011979
   58  H 18  S    0.223847  -0.056505  -0.065190   0.048871  -0.233073
   59  H 19  S    0.052408  -0.023374   0.049577   0.163901   0.174710
   60  H 20  S   -0.016208   0.105857   0.092520  -0.129375  -0.037568

                     31         32         33         34         35
                   -0.4448    -0.4166    -0.3568    -0.3143    -0.2712
                     A          A          A          A          A   
    1  C  1  S   -0.009211   0.002095  -0.005647  -0.000053  -0.027304
    2  C  1  S    0.037912   0.006785   0.006869   0.000761   0.131685
    3  C  1  X   -0.011270   0.216229  -0.035121  -0.006187   0.267186
    4  C  1  Y   -0.181933   0.019835   0.107695  -0.025708  -0.031600
    5  C  1  Z    0.078627   0.153227  -0.119702   0.018848   0.289677
    6  C  2  S    0.002704   0.020826   0.012979  -0.003309   0.006645
    7  C  2  S   -0.015272  -0.073849  -0.049587   0.010588  -0.028333
    8  C  2  X    0.114199   0.016282   0.083441   0.013038   0.024914
    9  C  2  Y    0.115185  -0.208704  -0.114484   0.014580  -0.030771
   10  C  2  Z    0.063312   0.127985   0.076823   0.005075   0.134200
   11  C  3  S   -0.014588  -0.005347  -0.011603  -0.002309   0.012012
   12  C  3  S    0.052135   0.021631   0.066243   0.010740  -0.071759
   13  C  3  X   -0.002537   0.120924   0.265942  -0.004290  -0.193425
   14  C  3  Y   -0.126572   0.152617  -0.071295  -0.026473   0.077394
   15  C  3  Z   -0.007285   0.043852   0.222967   0.008518  -0.155832
   16  C  4  S    0.023867   0.008948  -0.015856  -0.031822   0.012603
   17  C  4  S   -0.087567  -0.029128   0.085464   0.144801  -0.069303
   18  C  4  X    0.000139  -0.044772  -0.206726   0.132106   0.232359
   19  C  4  Y    0.128757   0.026676   0.067401   0.304807   0.031618
   20  C  4  Z   -0.003141  -0.002930  -0.250382  -0.017400   0.223558
   21  C  5  S    0.004608   0.017119   0.011810   0.007294   0.001801
   22  C  5  S   -0.007954  -0.063381  -0.041845  -0.023273  -0.003351
   23  C  5  X   -0.042655  -0.120620  -0.032815   0.094946  -0.002575
   24  C  5  Y   -0.210186  -0.087900  -0.078578  -0.086920   0.020347
   25  C  5  Z    0.106045  -0.096533  -0.023990   0.079835   0.088446
   26  C  6  S   -0.002387  -0.006457   0.018113  -0.001437  -0.005914
   27  C  6  S    0.020104   0.037298  -0.078658   0.009208   0.050617
   28  C  6  X    0.033924  -0.220541   0.217262   0.046445  -0.217453
   29  C  6  Y    0.330209   0.013455   0.034533   0.072658   0.010924
   30  C  6  Z   -0.100726  -0.135733   0.103064  -0.046758  -0.160034
   31  C  7  S   -0.009996   0.003077  -0.009188  -0.012260   0.006447
   32  C  7  S    0.052096  -0.008960   0.036259   0.044396  -0.025672
   33  C  7  X   -0.112398  -0.000898   0.269441  -0.166691   0.244424
   34  C  7  Y   -0.320912   0.027304  -0.160277   0.032164  -0.020135
   35  C  7  Z   -0.007978  -0.033494   0.328171  -0.022031   0.203681
   36  C  8  S   -0.005650  -0.000668   0.006439   0.037099   0.005663
   37  C  8  S    0.038467   0.002649  -0.027217  -0.165555  -0.027866
   38  C  8  X    0.006957   0.062914   0.319973   0.126940   0.298417
   39  C  8  Y    0.194935  -0.038905  -0.079594   0.087836  -0.099102
   40  C  8  Z    0.081563   0.086652   0.231520  -0.291699   0.221232
   41  C  9  S   -0.002636  -0.002312   0.006955   0.001060  -0.009000
   42  C  9  S    0.011144   0.012104  -0.025224  -0.002721   0.037568
   43  C  9  X   -0.044927   0.320432  -0.048281  -0.091917  -0.115250
   44  C  9  Y   -0.172120  -0.131639   0.021171  -0.128900  -0.016952
   45  C  9  Z    0.030408   0.268428   0.003053   0.114173  -0.090390
   46  O 10  S   -0.011108  -0.002739   0.000767  -0.000306   0.000258
   47  O 10  S    0.064590   0.016490  -0.006714   0.001536   0.001256
   48  O 10  X   -0.214823   0.330765   0.039416   0.560230  -0.203295
   49  O 10  Y   -0.106270  -0.103271   0.065475   0.462304   0.191365
   50  O 10  Z    0.243720   0.354403  -0.102246  -0.292607  -0.296856
   51  H 11  S    0.110753  -0.078776  -0.008661   0.010946  -0.072672
   52  H 12  S   -0.182765   0.044860   0.124396  -0.027630  -0.031403
   53  H 13  S   -0.164989   0.173188   0.060624  -0.018768   0.025311
   54  H 14  S   -0.103155   0.160373  -0.040410  -0.041102   0.069991
   55  H 15  S    0.041666  -0.086387  -0.069294   0.016595   0.049209
   56  H 16  S   -0.070058   0.000732  -0.103226  -0.110563   0.042295
   57  H 17  S    0.248213   0.050247   0.069496   0.113907   0.009398
   58  H 18  S   -0.190249  -0.067991   0.011891  -0.009174  -0.080032
   59  H 19  S   -0.094974   0.022738  -0.058412  -0.116498   0.009536
   60  H 20  S    0.203982  -0.017874   0.035681   0.120123   0.000825

                     36         37         38         39         40
                   -0.2234     0.2067     0.2159     0.3540     0.3894
                     A          A          A          A          A   
    1  C  1  S   -0.025325  -0.000468  -0.041471  -0.031140  -0.030401
    2  C  1  S    0.090296   0.028829   0.208752   0.134107   0.159998
    3  C  1  X    0.128673   0.129505   0.297665   0.251374   0.294056
    4  C  1  Y   -0.021643  -0.017893  -0.036790  -0.109761  -0.016700
    5  C  1  Z    0.154277   0.065870   0.285838   0.339078   0.206497
    6  C  2  S    0.021707  -0.018750  -0.007571   0.001264  -0.007706
    7  C  2  S   -0.105100   0.105418   0.043088  -0.009086   0.057397
    8  C  2  X    0.332128  -0.326370  -0.167834   0.034939  -0.206108
    9  C  2  Y   -0.213697   0.164522   0.089530  -0.015255   0.112498
   10  C  2  Z    0.372774  -0.379118  -0.119191   0.045304  -0.233536
   11  C  3  S   -0.030054  -0.025796   0.029769   0.040275  -0.021914
   12  C  3  S    0.113610   0.149923  -0.130275  -0.184657   0.121928
   13  C  3  X    0.208193   0.254757  -0.162582  -0.374563   0.168235
   14  C  3  Y   -0.059906  -0.028261   0.047934   0.153915   0.039770
   15  C  3  Z    0.162541   0.251575  -0.105269  -0.335001   0.178196
   16  C  4  S    0.031974  -0.009145  -0.022285  -0.051460  -0.008583
   17  C  4  S   -0.123851   0.071874   0.097634   0.249589   0.063751
   18  C  4  X    0.141756  -0.177456  -0.196203  -0.393842   0.025675
   19  C  4  Y   -0.041705   0.051984   0.027194   0.001655  -0.044266
   20  C  4  Z    0.166382  -0.125697  -0.180022  -0.382559   0.026968
   21  C  5  S   -0.022667  -0.019160  -0.006823  -0.002374   0.020653
   22  C  5  S    0.107806   0.108375   0.037464   0.013713  -0.115167
   23  C  5  X    0.445205   0.480395   0.138057   0.056776  -0.096702
   24  C  5  Y    0.099705   0.054868   0.038025  -0.013758  -0.061024
   25  C  5  Z    0.311425   0.344774   0.169793  -0.048436  -0.083501
   26  C  6  S    0.030045  -0.019812   0.009488   0.053895   0.006560
   27  C  6  S   -0.119069   0.111381  -0.017257  -0.270021  -0.014096
   28  C  6  X    0.216854  -0.227100   0.071241   0.427151   0.153063
   29  C  6  Y   -0.027036   0.027599   0.006534   0.000704  -0.030357
   30  C  6  Z    0.168007  -0.245005   0.025506   0.306258   0.134561
   31  C  7  S    0.008318   0.015186   0.009056  -0.001348  -0.001002
   32  C  7  S   -0.034231  -0.073503  -0.042288   0.008455   0.007880
   33  C  7  X   -0.040458  -0.144617   0.350218  -0.306350   0.282996
   34  C  7  Y    0.059473   0.143841  -0.057719   0.091110  -0.087610
   35  C  7  Z   -0.067341  -0.171130   0.298743  -0.276557   0.246901
   36  C  8  S   -0.004765  -0.007497  -0.002922   0.001410  -0.002305
   37  C  8  S    0.021405   0.033507   0.013106  -0.008375   0.012987
   38  C  8  X   -0.149207   0.203839  -0.210946   0.168719  -0.405270
   39  C  8  Y    0.034711  -0.084276   0.074349  -0.063577   0.152584
   40  C  8  Z   -0.092096   0.219272  -0.198729   0.171419  -0.387945
   41  C  9  S    0.009036   0.018638   0.003402   0.001757  -0.000268
   42  C  9  S   -0.038309  -0.089412  -0.018369  -0.011670   0.003382
   43  C  9  X    0.032763   0.103920  -0.296776   0.156589   0.429531
   44  C  9  Y    0.059894   0.084404   0.135368  -0.062948  -0.150925
   45  C  9  Z   -0.009942   0.028429  -0.302877   0.144053   0.402885
   46  O 10  S   -0.000120  -0.002086  -0.000906  -0.001451   0.000128
   47  O 10  S   -0.001298   0.009066   0.004987   0.009503  -0.001440
   48  O 10  X   -0.057984  -0.097772   0.363507  -0.119073  -0.311121
   49  O 10  Y   -0.067963  -0.031351  -0.149491   0.030712   0.112174
   50  O 10  Z    0.031726  -0.047693   0.348384  -0.122473  -0.285318
   51  H 11  S    0.002691  -0.044966  -0.056616   0.011864  -0.037138
   52  H 12  S    0.072353  -0.130746  -0.060998   0.066911  -0.071169
   53  H 13  S    0.047137  -0.016165  -0.004498   0.002214   0.010141
   54  H 14  S    0.060966  -0.129078  -0.043957  -0.032533  -0.079863
   55  H 15  S   -0.003104  -0.076828   0.005830  -0.001334  -0.040101
   56  H 16  S    0.005902  -0.067676   0.002782  -0.019006  -0.091459
   57  H 17  S   -0.061087  -0.020078  -0.006471   0.002967   0.030495
   58  H 18  S    0.005108  -0.054463  -0.068522   0.057255  -0.086163
   59  H 19  S    0.023130   0.030704   0.008688  -0.006581  -0.017233
   60  H 20  S   -0.024819  -0.041534  -0.022114   0.013724  -0.016488

                     41         42         43         44         45
                    0.5165     0.5729     0.5898     0.6220     0.6227
                     A          A          A          A          A   
    1  C  1  S   -0.010618   0.024669   0.003102  -0.007561   0.036470
    2  C  1  S    0.037504  -0.159153  -0.018434   0.051021  -0.230163
    3  C  1  X    0.359092   0.044812   0.039039  -0.029842   0.023706
    4  C  1  Y   -0.051732   0.235316   0.219168   0.063886   0.390396
    5  C  1  Z    0.293138   0.089351  -0.022684  -0.007507   0.069887
    6  C  2  S   -0.031065   0.020532   0.013929  -0.000729   0.042413
    7  C  2  S    0.194218  -0.127467  -0.087407   0.001593  -0.268139
    8  C  2  X   -0.212302   0.124628   0.103034  -0.049435   0.265342
    9  C  2  Y    0.163687   0.221639   0.170988   0.000316   0.416566
   10  C  2  Z   -0.252291  -0.018235  -0.002651   0.014436  -0.003693
   11  C  3  S   -0.011461   0.013113   0.025917   0.027885   0.030957
   12  C  3  S    0.041875  -0.084609  -0.166081  -0.175297  -0.194653
   13  C  3  X    0.332506   0.172095   0.152120   0.007782   0.235891
   14  C  3  Y   -0.042269   0.193660   0.063192  -0.147017   0.268659
   15  C  3  Z    0.340556  -0.100058  -0.059474   0.046291  -0.185411
   16  C  4  S    0.043394  -0.000290   0.047385   0.111518  -0.010302
   17  C  4  S   -0.229968  -0.020669  -0.290860  -0.655829   0.075874
   18  C  4  X    0.381887   0.196089   0.079562  -0.268489  -0.173026
   19  C  4  Y   -0.135289   0.323621  -0.026060  -0.482818  -0.175051
   20  C  4  Z    0.316325  -0.168584  -0.165708  -0.137160   0.110346
   21  C  5  S    0.010264   0.043936   0.019023   0.002407  -0.050081
   22  C  5  S   -0.078888  -0.274523  -0.121440  -0.019843   0.314941
   23  C  5  X   -0.327913   0.039128   0.005265   0.014933  -0.005099
   24  C  5  Y   -0.061265   0.324088   0.165349   0.011367  -0.310956
   25  C  5  Z   -0.218077  -0.092031  -0.108654   0.200329   0.123963
   26  C  6  S    0.040378   0.055071  -0.065053  -0.015302   0.006481
   27  C  6  S   -0.213914  -0.347932   0.377575   0.089000  -0.023849
   28  C  6  X    0.312611  -0.184058   0.257100  -0.120085  -0.046938
   29  C  6  Y   -0.074544   0.276006   0.389563   0.160820  -0.330425
   30  C  6  Z    0.398285   0.102767  -0.073971   0.093416  -0.065181
   31  C  7  S   -0.015739   0.050686   0.021229   0.051245  -0.048336
   32  C  7  S    0.089693  -0.309297  -0.113762  -0.342832   0.288441
   33  C  7  X   -0.260565  -0.168895   0.329185  -0.134797  -0.024857
   34  C  7  Y    0.003201  -0.001268   0.421279   0.056748  -0.199169
   35  C  7  Z   -0.185532   0.246778  -0.271201   0.211699  -0.047423
   36  C  8  S    0.014586  -0.010839   0.023345   0.111049   0.000256
   37  C  8  S   -0.084977   0.041421  -0.120256  -0.683291   0.002978
   38  C  8  X    0.199971  -0.212545   0.421799   0.038801  -0.070648
   39  C  8  Y   -0.094187  -0.104862   0.253965  -0.336990  -0.058714
   40  C  8  Z    0.199131   0.137589  -0.316303  -0.227456   0.045758
   41  C  9  S   -0.017887   0.090811  -0.089001  -0.128739  -0.018621
   42  C  9  S    0.102233  -0.535360   0.525830   0.757167   0.107533
   43  C  9  X   -0.275468   0.018512   0.271807   0.023508  -0.125723
   44  C  9  Y    0.010693   0.125666   0.078419  -0.458610  -0.130861
   45  C  9  Z   -0.209157   0.050849  -0.257415  -0.088268   0.069548
   46  O 10  S    0.002662  -0.018911   0.013330   0.007189   0.003875
   47  O 10  S   -0.015603   0.118468  -0.079603  -0.029323  -0.025280
   48  O 10  X    0.140369   0.029590  -0.103568   0.009488   0.027296
   49  O 10  Y   -0.013065  -0.139007   0.022676   0.091017   0.063311
   50  O 10  Z    0.124285  -0.102612   0.116103  -0.025393  -0.002211
   51  H 11  S    0.069044   0.309054   0.174693   0.021233   0.463827
   52  H 12  S   -0.001967  -0.125791  -0.220037  -0.078060  -0.241205
   53  H 13  S   -0.041945   0.347795   0.258759  -0.030019   0.652145
   54  H 14  S   -0.011250  -0.215442  -0.043154   0.224762  -0.278543
   55  H 15  S    0.066289   0.273354   0.251930   0.035186   0.439598
   56  H 16  S    0.032553   0.311186   0.348952   0.244121  -0.261910
   57  H 17  S   -0.021336   0.518011   0.274535  -0.057488  -0.517336
   58  H 18  S    0.053283   0.538510  -0.087293   0.171684  -0.235290
   59  H 19  S   -0.003850   0.483259  -0.424426   0.398787  -0.138650
   60  H 20  S    0.085816   0.166058  -0.390556   0.656406   0.100300

                     46         47         48         49         50
                    0.6647     0.6976     0.7143     0.7259     0.7411
                     A          A          A          A          A   
    1  C  1  S    0.034342  -0.116274  -0.026719   0.126762  -0.066421
    2  C  1  S   -0.215417   0.739411   0.161625  -0.811142   0.419167
    3  C  1  X    0.045651   0.101101  -0.182843   0.019561   0.203641
    4  C  1  Y   -0.272900  -0.084996   0.202714  -0.528716   0.001219
    5  C  1  Z    0.003465  -0.404820   0.173740   0.096777  -0.278632
    6  C  2  S   -0.010946   0.070760   0.062440  -0.014100  -0.006886
    7  C  2  S    0.064256  -0.431604  -0.387669   0.087436   0.069362
    8  C  2  X    0.037568   0.110153  -0.040226   0.215582   0.052719
    9  C  2  Y   -0.080788  -0.013961   0.049584  -0.136703  -0.051776
   10  C  2  Z   -0.116209  -0.050770   0.063699  -0.258307   0.005514
   11  C  3  S    0.001836  -0.088454  -0.122567  -0.090369  -0.066983
   12  C  3  S   -0.012331   0.553893   0.785938   0.581919   0.421678
   13  C  3  X    0.165871   0.052054  -0.392016   0.200796  -0.020170
   14  C  3  Y    0.023010   0.177168   0.197933   0.388835   0.279678
   15  C  3  Z   -0.160036  -0.212086   0.185557  -0.288966   0.028967
   16  C  4  S    0.013327  -0.024193  -0.045369   0.025252   0.130877
   17  C  4  S   -0.091169   0.154111   0.300384  -0.141871  -0.817993
   18  C  4  X    0.341191   0.222897  -0.009384  -0.122101  -0.130857
   19  C  4  Y    0.034300  -0.120607  -0.047346  -0.085796   0.165667
   20  C  4  Z   -0.430451  -0.076882   0.204285   0.149713  -0.055985
   21  C  5  S    0.000248   0.056016   0.046790   0.001588  -0.146720
   22  C  5  S   -0.008866  -0.353552  -0.306044  -0.006741   0.935287
   23  C  5  X    0.260581   0.007442   0.008658  -0.103382  -0.118491
   24  C  5  Y   -0.048879  -0.096616   0.018346   0.015553   0.082738
   25  C  5  Z   -0.198353  -0.065078   0.045189   0.138228  -0.064130
   26  C  6  S    0.080160  -0.079920   0.031169  -0.051505   0.115964
   27  C  6  S   -0.479257   0.509596  -0.192387   0.304654  -0.728564
   28  C  6  X   -0.100120   0.306971  -0.270304  -0.028088  -0.051237
   29  C  6  Y   -0.429521  -0.187007   0.009118   0.189714   0.254821
   30  C  6  Z   -0.205996  -0.041435   0.251443   0.035687  -0.109716
   31  C  7  S   -0.120858   0.061840  -0.085983   0.052971  -0.026065
   32  C  7  S    0.744776  -0.409105   0.547930  -0.325572   0.160916
   33  C  7  X    0.067677  -0.127796  -0.002524   0.032220   0.083071
   34  C  7  Y   -0.279088   0.055895   0.079047   0.128176  -0.131258
   35  C  7  Z   -0.071475  -0.003906   0.023294   0.108947  -0.113625
   36  C  8  S    0.091381  -0.003970   0.106840  -0.003603  -0.043156
   37  C  8  S   -0.551647   0.011664  -0.682825   0.019093   0.287589
   38  C  8  X   -0.011480  -0.000672   0.070948   0.066013  -0.039999
   39  C  8  Y   -0.131888  -0.250382   0.060999   0.046081   0.094586
   40  C  8  Z   -0.091745  -0.014142  -0.047547  -0.077146   0.037681
   41  C  9  S    0.005062   0.028057  -0.048578  -0.040349  -0.023997
   42  C  9  S   -0.042753  -0.182635   0.293067   0.242755   0.143312
   43  C  9  X    0.263694  -0.006815   0.209931  -0.059442  -0.213113
   44  C  9  Y    0.049749  -0.058172   0.223576  -0.061311  -0.189034
   45  C  9  Z   -0.232600  -0.144530  -0.242921  -0.033833   0.176661
   46  O 10  S   -0.017010  -0.020919   0.011312   0.007639   0.010139
   47  O 10  S    0.120881   0.143789  -0.074644  -0.050685  -0.069299
   48  O 10  X   -0.024885   0.066567  -0.088310  -0.001351   0.033690
   49  O 10  Y   -0.173437  -0.144298  -0.007690   0.060524   0.129099
   50  O 10  Z   -0.059456  -0.082450   0.128900   0.041770  -0.002960
   51  H 11  S   -0.112414  -0.651477   0.182826   0.042721  -0.388115
   52  H 12  S    0.322733  -0.426006  -0.128435   0.860217  -0.323602
   53  H 13  S   -0.083352   0.285436   0.225523  -0.044239  -0.021877
   54  H 14  S   -0.088646  -0.457915  -0.429596  -0.737247  -0.416138
   55  H 15  S    0.220465  -0.092076  -0.733748   0.089362  -0.202321
   56  H 16  S    0.581454   0.083302  -0.285494  -0.112573   0.403504
   57  H 17  S    0.041733   0.117233   0.148239  -0.032323  -0.392581
   58  H 18  S   -0.089065  -0.534353   0.327884  -0.001795   0.513311
   59  H 19  S   -0.468353   0.288934  -0.261329   0.173251  -0.188653
   60  H 20  S    0.420338   0.199404   0.256501  -0.082423  -0.185403

                     51         52         53         54         55
                    0.7566     0.7867     0.8227     0.8762     0.8828
                     A          A          A          A          A   
    1  C  1  S    0.067795   0.037204  -0.025600   0.010216  -0.023118
    2  C  1  S   -0.438002  -0.232751   0.159049  -0.071256   0.168404
    3  C  1  X   -0.162469   0.363215  -0.251130  -0.008910  -0.197782
    4  C  1  Y    0.320645   0.281002  -0.214526  -0.159572  -0.087277
    5  C  1  Z    0.347343  -0.316079   0.253387   0.002513   0.054922
    6  C  2  S   -0.024327  -0.164970   0.110694   0.012977  -0.001671
    7  C  2  S    0.160205   1.092108  -0.740551  -0.088133   0.011586
    8  C  2  X   -0.051795   0.123245  -0.108047   0.077996  -0.210340
    9  C  2  Y    0.010354  -0.161992   0.107604   0.189285   0.163594
   10  C  2  Z    0.096538   0.207033  -0.143557  -0.032696   0.283556
   11  C  3  S   -0.056034   0.053351  -0.020934   0.006666   0.023387
   12  C  3  S    0.360549  -0.335158   0.131478  -0.052682  -0.168483
   13  C  3  X   -0.381473  -0.015264   0.015497  -0.023308   0.024544
   14  C  3  Y    0.156153   0.493563  -0.416106  -0.089481   0.201021
   15  C  3  Z    0.382400   0.153403  -0.105493   0.063298   0.135886
   16  C  4  S    0.054541  -0.053862  -0.012673   0.033176   0.082784
   17  C  4  S   -0.344922   0.339238   0.082750  -0.235757  -0.574569
   18  C  4  X    0.200268  -0.012347   0.115548  -0.359386  -0.017086
   19  C  4  Y   -0.007154   0.298376   0.491276   0.270847   0.511266
   20  C  4  Z   -0.272299   0.152804   0.056099   0.377713  -0.244645
   21  C  5  S   -0.033051  -0.046118  -0.118374  -0.058174  -0.003302
[...]
 18   H            X -0.04966379  0.01848191 -0.02622999 -0.04503144 -0.00993417
                   Y -0.09876562  0.00804595  0.02578414 -0.08633188 -0.01709837
                   Z -0.03579843  0.00830541 -0.00301727  0.00292162 -0.00346052
 19   H            X -0.00989988  0.00052167  0.00113015 -0.09706580 -0.02153712
                   Y -0.07004646  0.00372158  0.02060590 -0.14762761 -0.02849507
                   Z -0.00939566  0.00063548  0.01053177  0.04055421  0.01035340
 20   H            X  0.00523089 -0.00014586 -0.00411372 -0.08617510 -0.06536058
                   Y  0.01598200  0.00000990 -0.01041878 -0.07846568  0.00212666
                   Z -0.00423385 -0.00135445  0.01239985  0.07640767  0.07231621

 TRANS. SAYVETZ    X -0.00000167 -0.00000040 -0.00000239 -0.00000146 -0.00000207
                   Y -0.00000195  0.00000105 -0.00000125 -0.00000140  0.00000009
                   Z  0.00000475  0.00000197  0.00000234  0.00000203  0.00000199
               TOTAL  0.00000540  0.00000227  0.00000357  0.00000287  0.00000287

   ROT. SAYVETZ    X  0.00002802 -0.00019486 -0.00002592 -0.00002798  0.00001514
                   Y  0.00011297  0.00012472 -0.00011953  0.00002137 -0.00001598
                   Z -0.00002010 -0.00000187  0.00000514 -0.00000645  0.00001300
               TOTAL  0.00011811  0.00023136  0.00012241  0.00003579  0.00002557

                           51          52          53          54          55
       FREQUENCY:      3630.08     3634.32     3686.09     3693.06     3695.66  
        SYMMETRY:         A           A           A           A           A   
    REDUCED MASS:      1.06267     1.06462     1.09101     1.09411     1.09590
    IR INTENSITY:      0.09887     0.07246     0.19342     0.04547     0.14158

  1   C            X -0.02760098  0.01466438 -0.00367241  0.00045789  0.00671695
                   Y -0.00513376  0.00332447 -0.00201378  0.00154724  0.00525024
                   Z  0.05295059 -0.02935298  0.00489840 -0.00119698 -0.00697919
  2   C            X -0.00127694 -0.00470495  0.00823459 -0.00454818 -0.03741323
                   Y -0.00906793  0.00012562  0.01550907 -0.00906755 -0.07100808
                   Z  0.00092644  0.00555487 -0.00161602  0.00066648  0.00731479
  3   C            X  0.01616889  0.03161507  0.00157657 -0.00069154 -0.00073366
                   Y -0.02456216 -0.04815579 -0.00618715  0.00173967  0.01065331
                   Z -0.01084796 -0.01969498 -0.00150066  0.00170036  0.00256195
  4   C            X -0.00147128 -0.00138281  0.02969816  0.02808157  0.00583072
                   Y -0.00096428  0.00045544  0.01078136  0.00776703  0.00113913
                   Z  0.00270431  0.00079780 -0.04805992 -0.04516393 -0.00838887
  5   C            X  0.00069337  0.00050793 -0.00856898 -0.00162985 -0.00000549
                   Y  0.00353764  0.00097659 -0.03788613  0.00895333 -0.00140709
                   Z -0.00091440 -0.00065060  0.01163278  0.00154589  0.00008769
  6   C            X  0.00166029  0.00060822 -0.02087864  0.03419889 -0.01096518
                   Y -0.00241657 -0.00093689  0.02939089 -0.04417264  0.01390241
                   Z -0.00143796  0.00068235  0.01471711 -0.02477688  0.00882179
  7   C            X -0.00070179  0.00003363  0.00513790 -0.01136127  0.00538581
                   Y -0.00000439  0.00006757 -0.00037229  0.00016761  0.00019269
                   Z  0.00003167  0.00010486 -0.00576280  0.01236160 -0.00578936
  8   C            X  0.00015338  0.00002169 -0.00177979  0.00401492 -0.00175752
                   Y  0.00048888  0.00017831 -0.00280514  0.00699935 -0.00299076
                   Z -0.00008093  0.00008392  0.00058382 -0.00132767  0.00063767
  9   C            X -0.00015823 -0.00016827 -0.00069918 -0.00104264 -0.00006798
                   Y  0.00020210 -0.00001260 -0.00104047 -0.00148765 -0.00014305
                   Z -0.00024856 -0.00025499  0.00023402  0.00046241 -0.00004647
 10   O            X  0.00000141 -0.00002049  0.00002938  0.00007380  0.00000983
                   Y  0.00000048  0.00003841  0.00006873  0.00022778  0.00003178
                   Z  0.00001735  0.00000487 -0.00002269  0.00000043  0.00002694
 11   H            X  0.10599578 -0.05718799  0.00908576 -0.00158906 -0.00747009
                   Y -0.46074433  0.24788739 -0.03161527  0.00411508  0.02390155
                   Z -0.37029080  0.19862991 -0.02441082  0.00331289  0.01873039
 12   H            X  0.17430962 -0.09462931  0.01936438 -0.00626822 -0.02500356
                   Y  0.52381409 -0.28560940  0.05350255 -0.01946863 -0.08162398
                   Z -0.21715247  0.11960276 -0.02056246  0.00779795  0.03232388
 13   H            X  0.06383769  0.01727287 -0.08634109  0.05038093  0.40158238
                   Y  0.12650476  0.03914955 -0.17367012  0.10082214  0.80278607
                   Z -0.01649069 -0.00269686  0.02199234 -0.01255368 -0.09979700
 14   H            X  0.06989657  0.13222751  0.01614327 -0.00343278 -0.02090711
                   Y  0.30373811  0.58464844  0.06196673 -0.01377581 -0.08766915
                   Z -0.06983891 -0.13438730 -0.01293168  0.00312841  0.02248969
 15   H            X -0.25493417 -0.48245313 -0.02941690  0.00994394  0.02041545
                   Y -0.03165364 -0.06043791 -0.00377546  0.00138190  0.00203660
                   Z  0.17435511  0.33062583  0.02248299 -0.00785292 -0.01638657
 16   H            X  0.01809024  0.00540997 -0.32989488 -0.30489506 -0.05762336
                   Y  0.00725942  0.00214015 -0.11430356 -0.10381562 -0.01918719
                   Z -0.03407012 -0.01042247  0.55304803  0.50901450  0.09459441
 17   H            X -0.00875998 -0.00281805  0.08925610 -0.01564514  0.00407276
                   Y -0.04119564 -0.01294226  0.44678185 -0.08259595  0.02081956
                   Z  0.01182217  0.00380759 -0.13223118  0.02311707 -0.00609399
 18   H            X -0.02247144 -0.00800986  0.24961719 -0.38654098  0.12227472
                   Y  0.02791367  0.00995081 -0.32722503  0.50575115 -0.16046030
                   Z  0.01329420  0.00444782 -0.17110086  0.26670901 -0.08577335
 19   H            X  0.00541596  0.00067605 -0.06069239  0.13243833 -0.06168030
                   Y  0.00143776 -0.00009728 -0.00948862  0.02039949 -0.00951746
                   Z -0.00569229 -0.00081342  0.06323169 -0.13710331  0.06396638
 20   H            X -0.00217147 -0.00066434  0.01467529 -0.04089727  0.01722285
                   Y -0.00556955 -0.00166878  0.03271932 -0.08835171  0.03720666
                   Z  0.00080504 -0.00009452 -0.00299600  0.00797583 -0.00328630

 TRANS. SAYVETZ    X -0.00000072 -0.00000080 -0.00000136 -0.00000013  0.00000022
                   Y -0.00000021  0.00000034 -0.00000142  0.00000088  0.00000009
                   Z  0.00000106  0.00000063  0.00000012  0.00000021  0.00000083
               TOTAL  0.00000129  0.00000108  0.00000197  0.00000091  0.00000087

   ROT. SAYVETZ    X  0.00002498  0.00000013 -0.00000204  0.00001630 -0.00000683
                   Y  0.00000017 -0.00003187  0.00000884  0.00003727  0.00000117
                   Z -0.00002183 -0.00001722  0.00001220 -0.00001331  0.00001204
               TOTAL  0.00003318  0.00003622  0.00001521  0.00004280  0.00001389

                           56          57          58          59          60
       FREQUENCY:      3704.05     3712.80     3736.28     3777.40     3780.01  
        SYMMETRY:         A           A           A           A           A   
    REDUCED MASS:      1.09133     1.10022     1.10603     1.11642     1.11674
    IR INTENSITY:      0.55033     0.10234     0.06835     0.00320     0.01483

  1   C            X -0.00052699 -0.00010164 -0.00001621 -0.00545966 -0.00168793
                   Y  0.00054777  0.00199915 -0.00042416 -0.08720647 -0.03158711
                   Z  0.00047777 -0.00008864 -0.00001589 -0.01329778 -0.00527503
  2   C            X  0.00268618 -0.00423875  0.00002911 -0.00173815 -0.00236703
                   Y  0.00473785 -0.00756518  0.00006044 -0.00156233 -0.00482110
                   Z -0.00050948  0.00058777  0.00001256  0.00086828 -0.00011727
  3   C            X -0.00001076  0.00074286 -0.00008536  0.02002363 -0.05580157
                   Y -0.00054928  0.00131708 -0.00030649  0.01984963 -0.05371671
                   Z  0.00022042 -0.00108636  0.00011175 -0.01532199  0.04258861
  4   C            X  0.00501654 -0.01611352  0.00145681  0.00006862 -0.00016388
                   Y  0.00071658 -0.00088312  0.00028142 -0.00010668  0.00004776
                   Z -0.00785646  0.02374357 -0.00200811  0.00000279  0.00088146
  5   C            X  0.00180144 -0.01163969  0.00081903 -0.00015015 -0.00007896
                   Y  0.01498201 -0.06822013  0.00465072 -0.00037333 -0.00073167
                   Z -0.00361027  0.02227670 -0.00150863  0.00021252  0.00026008
  6   C            X  0.00744189  0.02052075 -0.00188276  0.00065420  0.00063671
                   Y -0.01363180 -0.02387233  0.00481256 -0.00027709 -0.00047545
                   Z -0.00537436 -0.01749164  0.00191945 -0.00021451 -0.00020481
  7   C            X  0.04726285  0.00396623 -0.03303295  0.00029002  0.00022609
                   Y  0.00777136  0.00233773  0.00197944  0.00004211 -0.00004756
                   Z -0.04831481 -0.00341164  0.03644756 -0.00065846 -0.00043588
  8   C            X -0.01929002 -0.00435285 -0.02684416 -0.00009532 -0.00010054
                   Y -0.03598859 -0.00982214 -0.06975494 -0.00004409  0.00014521
                   Z  0.00575595  0.00064282  0.00032666 -0.00005043  0.00003116
  9   C            X  0.00105342  0.00053010  0.00165848 -0.00001188 -0.00010886
                   Y  0.00075909  0.00106263  0.00022151  0.00000488  0.00007202
                   Z -0.00085074 -0.00010649 -0.00171477  0.00009917 -0.00015485
 10   O            X -0.00010659 -0.00001254 -0.00019942  0.00001400 -0.00002200
                   Y -0.00017342 -0.00018181  0.00010972 -0.00000539  0.00001630
                   Z  0.00003897 -0.00005841  0.00026786 -0.00000636 -0.00001298
 11   H            X  0.00155535  0.00213704 -0.00030285 -0.11070242 -0.04006571
                   Y -0.00572743 -0.00802337  0.00195982  0.47671074  0.17382568
                   Z -0.00451238 -0.00621759  0.00152142  0.38847921  0.14125108
 12   H            X -0.00010696 -0.00354025  0.00070138  0.18207182  0.06554695
                   Y  0.00089299 -0.01327996  0.00363935  0.55088759  0.19722413
                   Z -0.00068513  0.00516159 -0.00156481 -0.23459498 -0.08392462
 13   H            X -0.02744119  0.04357448 -0.00010668  0.01529576  0.02884447
                   Y -0.05467814  0.08682543 -0.00050205  0.02334081  0.05699756
                   Z  0.00660986 -0.01068914  0.00004575 -0.00522489 -0.00444141
 14   H            X  0.00147694 -0.00308024  0.00100860 -0.04643806  0.12699771
                   Y  0.00510832 -0.01289075  0.00323766 -0.21259068  0.57875460
                   Z -0.00142265  0.00382547 -0.00066531  0.04927537 -0.13321951
 15   H            X -0.00007815 -0.00757036  0.00050887 -0.19108574  0.52753695
                   Y -0.00011710 -0.00092135  0.00000419 -0.02196361  0.06151388
                   Z -0.00006855  0.00571988 -0.00036616  0.13036235 -0.35944971
 16   H            X -0.05115715  0.15306412 -0.01160941 -0.00100767  0.00635221
                   Y -0.01766515  0.05051397 -0.00382807 -0.00025861  0.00222646
                   Z  0.08509037 -0.25358435  0.01944994  0.00191095 -0.01169654
 17   H            X -0.03160294  0.14676774 -0.00894258  0.00094264  0.00158954
                   Y -0.16629580  0.75108779 -0.04796899  0.00421155  0.00805417
                   Z  0.04922577 -0.22482300  0.01432648 -0.00134691 -0.00228336
 18   H            X -0.10026734 -0.21295604  0.02914055 -0.00708736 -0.00538885
                   Y  0.13461082  0.27850675 -0.04008378  0.00860477  0.00691665
                   Z  0.06927871  0.14915980 -0.02072422  0.00414524  0.00343552
 19   H            X -0.53571222 -0.04316216  0.34830078 -0.00465934 -0.00316970
                   Y -0.08711520 -0.00802602  0.05457462 -0.00038392 -0.00030050
                   Z  0.54805728  0.04343277 -0.35675230  0.00462455  0.00302213
 20   H            X  0.20404421  0.05220729  0.33384795  0.00073788 -0.00008140
                   Y  0.43967474  0.11319110  0.72353114  0.00111580 -0.00058521
                   Z -0.03704420 -0.00951672 -0.05924096  0.00015260  0.00013138

 TRANS. SAYVETZ    X  0.00000040  0.00000039 -0.00000012 -0.00000007 -0.00000007
                   Y -0.00000023 -0.00000067 -0.00000004  0.00000005  0.00000007
                   Z  0.00000003 -0.00000067  0.00000009  0.00000007 -0.00000002
               TOTAL  0.00000047  0.00000102  0.00000016  0.00000011  0.00000010

   ROT. SAYVETZ    X -0.00000103  0.00000628 -0.00000412 -0.00002042  0.00001045
                   Y  0.00002698 -0.00000063 -0.00000955 -0.00001544  0.00000790
                   Z -0.00000528 -0.00001562  0.00000090  0.00000903 -0.00000239
               TOTAL  0.00002752  0.00001684  0.00001044  0.00002715  0.00001332

 REFERENCE ON SAYVETZ CONDITIONS - A. SAYVETZ, J.CHEM.PHYS., 7, 383-389(1939).

 NOTE - THE MODES J,K ARE ORTHONORMALIZED ACCORDING TO
 SUM ON I   M(I) * (X(I,J)*X(I,K) + Y(I,J)*Y(I,K) + Z(I,J)*Z(I,K)) = DELTA(J,K)

  MODE FREQ(CM**-1)  SYMMETRY  RED. MASS  IR INTENS.
     1    1060.364    A        9.324695    0.064338
     2       0.119    A        6.750499    0.000023
     3       0.069    A        6.644975    0.000015
     4       0.002    A        6.708735    0.000000
     5       1.355    A        4.777012    0.013579
     6       5.050    A        4.982619    0.004471
     7       6.255    A        4.613047    0.010396
     8     104.130    A        4.137947    0.029771
     9     203.673    A        3.551384    0.016624
    10     265.247    A        4.167123    0.030703
    11     381.412    A        5.276968    0.035424
    12     437.612    A        2.307299    0.075438
    13     465.617    A        3.414059    0.109573
    14     493.042    A        3.992243    0.077133
    15     506.439    A        4.789798    0.105004
    16     552.686    A        1.961641    0.248756
    17     575.844    A        2.545755    0.264898
    18     610.978    A        4.901311    0.016012
    19     677.216    A        5.711299    0.076627
    20     840.260    A        3.287479    0.033017
    21     851.562    A        4.185976    0.032904
    22     926.856    A        1.667078    2.621673
    23     938.110    A        1.761292    0.121210
    24     964.341    A        1.772482    0.902779
    25    1004.119    A        1.456940    0.150432
    26    1040.445    A        1.586993    0.061890
    27    1092.367    A        1.590188    0.228083
    28    1119.736    A        2.732668    0.001835
    29    1166.737    A        2.141531    0.057048
    30    1209.133    A        1.282450    0.003080
    31    1214.218    A        1.508099    0.090260
    32    1240.834    A        1.141096    0.082515
    33    1270.217    A        1.287365    0.408583
    34    1301.612    A        1.134613    0.247638
    35    1318.496    A        1.219222    0.093700
    36    1341.283    A        1.231507    0.051315
    37    1365.533    A        1.156041    0.010768
    38    1386.068    A        1.275970    0.048815
    39    1418.708    A        1.831275    0.674009
    40    1471.057    A        1.323609    0.088149
    41    1488.626    A        1.670939    0.001691
    42    1599.389    A        1.598211    0.164867
    43    1637.161    A        1.712708    0.166614
    44    1668.014    A        1.524681    0.029341
    45    1718.728    A        2.486350    0.476553
    46    1758.373    A        1.912216    0.035433
    47    1813.503    A        1.256193    0.224294
    48    1856.577    A        2.349652    0.040075
    49    2009.745    A        7.078380    0.062088
    50    2080.653    A       10.639105    1.818311
    51    3630.078    A        1.062666    0.098869
    52    3634.318    A        1.064621    0.072457
    53    3686.086    A        1.091014    0.193424
    54    3693.056    A        1.094113    0.045474
    55    3695.663    A        1.095901    0.141578
    56    3704.053    A        1.091326    0.550328
    57    3712.802    A        1.100222    0.102337
    58    3736.281    A        1.106027    0.068346
    59    3777.403    A        1.116417    0.003199
    60    3780.007    A        1.116742    0.014830

     -------------------------------
     THERMOCHEMISTRY AT T=  298.15 K
     -------------------------------

 USING IDEAL GAS, RIGID ROTOR, HARMONIC NORMAL MODE APPROXIMATIONS.
 P=  1.01325E+05 PASCAL.
 ALL FREQUENCIES ARE SCALED BY   1.00000
 THE MOMENTS OF INERTIA ARE (IN AMU*BOHR**2)
            852.46077          1312.32334          1651.70347
 THE ROTATIONAL SYMMETRY NUMBER IS  1.0
 THE ROTATIONAL CONSTANTS ARE (IN GHZ)
      2.11516     1.37397     1.09165
   1 IMAGINARY FREQUENCY VIBRATION(S) IS(ARE) EXCLUDED
     FROM THE FOLLOWING THERMOCHEMICAL ANALYSIS.
      8 -     60 VIBRATIONAL MODES ARE USED IN THERMOCHEMISTRY.
 THE HARMONIC ZERO POINT ENERGY IS (SCALED BY   1.000)
        0.192360 HARTREE/MOLECULE    42218.049908 CM**-1/MOLECULE 
      120.707583 KCAL/MOL              505.040527 KJ/MOL

               Q               LN Q
 ELEC.     1.00000E+00       0.000000
 TRANS.    6.10192E+07      17.926699
 ROT.      4.86592E+05      13.095182
 VIB.      1.44463E+01       2.670440
 TOT.      4.28933E+14      33.692321

              E         H         G         CV        CP        S
           KJ/MOL    KJ/MOL    KJ/MOL   J/MOL-K   J/MOL-K   J/MOL-K
 ELEC.      0.000     0.000     0.000     0.000     0.000     0.000
 TRANS.     3.718     6.197   -44.439    12.472    20.786   169.836
 ROT.       3.718     3.718   -32.462    12.472    12.472   121.350
 VIB.     516.151   516.151   498.421    93.000    93.000    59.469
 TOTAL    523.588   526.067   421.519   117.943   126.257   350.655
 VIB. THERMAL CORRECTION E(T)-E(0) = H(T)-H(0) =     11110.715 J/MOL

              E         H         G         CV        CP        S
         KCAL/MOL  KCAL/MOL  KCAL/MOL CAL/MOL-K CAL/MOL-K CAL/MOL-K
 ELEC.      0.000     0.000     0.000     0.000     0.000     0.000
 TRANS.     0.889     1.481   -10.621     2.981     4.968    40.592
 ROT.       0.889     0.889    -7.759     2.981     2.981    29.003
 VIB.     123.363   123.363   119.125    22.227    22.227    14.213
 TOTAL    125.141   125.733   100.746    28.189    30.176    83.809
 VIB. THERMAL CORRECTION E(T)-E(0) = H(T)-H(0) =      2655.525 CAL/MOL
 ......END OF NORMAL COORDINATE ANALYSIS......
 STEP CPU TIME =     0.01 TOTAL CPU TIME =         67.9 (      1.1 MIN)
 TOTAL WALL CLOCK TIME=         68.1 SECONDS, CPU UTILIZATION IS    99.74%
               580000  WORDS OF DYNAMIC MEMORY USED
 EXECUTION OF GAMESS TERMINATED NORMALLY Fri Nov 12 21:25:53 2021
 DDI: 263640 bytes (0.3 MB / 0 MWords) used by master data server.

 ----------------------------------------
 CPU timing information for all processes
 ========================================
 0: 67.266 + 0.690 = 67.956
 ----------------------------------------
 ddikick.x: exited gracefully.
----- accounting info -----
Files used on the master node chemcompute-node-0.novalocal were:
-rw-r--r--. 1 chemcomp chemcomp     1517 Nov 12 21:24 /scratch/305554/341415.F05
-rw-rw-r--. 1 chemcomp chemcomp 18001600 Nov 12 21:25 /scratch/305554/341415.F08
-rw-rw-r--. 1 chemcomp chemcomp 70451200 Nov 12 21:25 /scratch/305554/341415.F10
-rw-rw-r--. 1 chemcomp chemcomp   878880 Nov 12 21:25 /scratch/305554/341415.F18
Fri Nov 12 21:25:56 UTC 2021
0.161u 0.098s 1:11.78 0.3%	0+0k 8+216io 0pf+0w
Finishing Up...
Looking for IR data...
Looking for Raman data...
vibramans not found
Looking for thermodynamics data...
Looking for UV-Vis data...
305554
